********************************************************************************
*                       GENERAL UTILITY LATTICE PROGRAM                        *
*                                 Julian Gale                                  *
*                       Curtin Institute for Computation                       *
*                           Department of Chemistry                            *
*                    Curtin University, Western Australia                      *
********************************************************************************
* Version = 5.1.1 * Last modified =  11th April 2019                           *
********************************************************************************
*  single       - perform a single point run                                   *
*  phonon       - calculate phonons for final geometry                         *
********************************************************************************

  Job Started  at 15:00.47 19th June       2019                               

  Number of CPUs =     1


  Total number of configurations input =      1

********************************************************************************
*  Input for Configuration =   1                                               *
********************************************************************************

  Formula = ZnS                                                         

  Number of irreducible atoms/shells =       2


  Total number atoms/shells =       2

  Dimensionality = 3               :  Bulk   



  Cartesian lattice vectors (Angstroms) :

        3.854000    0.000000    0.000000
        1.927000    3.337662    0.000000
        1.927000    1.112554    3.146778

  Cell parameters (Angstroms/Degrees):

  a =       3.8540    alpha =  60.0000
  b =       3.8540    beta  =  60.0000
  c =       3.8540    gamma =  60.0000

  Initial cell volume =          40.478101 Angs**3

  Shrinking factors =     10     1     1

  Temperature of configuration =  0.000     K 

  Pressure of configuration =         0.000 GPa 

  Fractional coordinates of asymmetric unit :

--------------------------------------------------------------------------------
   No.  Atomic       x           y          z         Charge      Occupancy
        Label      (Frac)      (Frac)     (Frac)        (e)         (Frac)  
--------------------------------------------------------------------------------
      1 Zn    c    0.000000    0.000000    0.000000     2.00000    1.000000    
      2 S     c    0.250000    0.250000    0.250000    -2.00000    1.000000    
--------------------------------------------------------------------------------


  Brillouin zone sampling points :

--------------------------------------------------------------------------------
  Point number          x          y          z            Weight
--------------------------------------------------------------------------------
        1           0.000000   0.000000   0.000000     0.01515152
        2           0.025000   0.000000   0.025000     0.01515152
        3           0.050000   0.000000   0.050000     0.01515152
        4           0.075000   0.000000   0.075000     0.01515152
        5           0.100000   0.000000   0.100000     0.01515152
        6           0.125000   0.000000   0.125000     0.01515152
        7           0.150000   0.000000   0.150000     0.01515152
        8           0.175000   0.000000   0.175000     0.01515152
        9           0.200000   0.000000   0.200000     0.01515152
       10           0.225000   0.000000   0.225000     0.01515152
       11           0.250000   0.000000   0.250000     0.01515152
       12           0.275000   0.000000   0.275000     0.01515152
       13           0.300000   0.000000   0.300000     0.01515152
       14           0.325000   0.000000   0.325000     0.01515152
       15           0.350000   0.000000   0.350000     0.01515152
       16           0.375000   0.000000   0.375000     0.01515152
       17           0.400000   0.000000   0.400000     0.01515152
       18           0.425000   0.000000   0.425000     0.01515152
       19           0.450000   0.000000   0.450000     0.01515152
       20           0.475000   0.000000   0.475000     0.01515152
       21           0.500000   0.000000   0.500000     0.01515152
       22           0.525000   0.050000   0.525000     0.01515152
       23           0.550000   0.100000   0.550000     0.01515152
       24           0.575000   0.150000   0.575000     0.01515152
       25           0.600000   0.200000   0.600000     0.01515152
       26           0.625000   0.250000   0.625000     0.01515152
       27           0.650000   0.300000   0.650000     0.01515152
       28           0.675000   0.350000   0.675000     0.01515152
       29           0.700000   0.400000   0.700000     0.01515152
       30           0.725000   0.450000   0.725000     0.01515152
       31           0.750000   0.500000   0.750000     0.01515152
       32           0.775000   0.550000   0.775000     0.01515152
       33           0.800000   0.600000   0.800000     0.01515152
       34           0.825000   0.650000   0.825000     0.01515152
       35           0.850000   0.700000   0.850000     0.01515152
       36           0.875000   0.750000   0.875000     0.01515152
       37           0.900000   0.800000   0.900000     0.01515152
       38           0.925000   0.850000   0.925000     0.01515152
       39           0.950000   0.900000   0.950000     0.01515152
       40           0.975000   0.950000   0.975000     0.01515152
       41           0.000000   0.000000   0.000000     0.01515152
       42           0.975000   0.975000   0.975000     0.01515152
       43           0.950000   0.950000   0.950000     0.01515152
       44           0.925000   0.925000   0.925000     0.01515152
       45           0.900000   0.900000   0.900000     0.01515152
       46           0.875000   0.875000   0.875000     0.01515152
       47           0.850000   0.850000   0.850000     0.01515152
       48           0.825000   0.825000   0.825000     0.01515152
       49           0.800000   0.800000   0.800000     0.01515152
       50           0.775000   0.775000   0.775000     0.01515152
       51           0.750000   0.750000   0.750000     0.01515152
       52           0.725000   0.725000   0.725000     0.01515152
       53           0.700000   0.700000   0.700000     0.01515152
       54           0.675000   0.675000   0.675000     0.01515152
       55           0.650000   0.650000   0.650000     0.01515152
       56           0.625000   0.625000   0.625000     0.01515152
       57           0.600000   0.600000   0.600000     0.01515152
       58           0.575000   0.575000   0.575000     0.01515152
       59           0.550000   0.550000   0.550000     0.01515152
       60           0.525000   0.525000   0.525000     0.01515152
       61           0.500000   0.500000   0.500000     0.01515152
       62           0.050000   0.500000   0.500000     0.01515152
       63           0.150000   0.500000   0.500000     0.01515152
       64           0.250000   0.500000   0.500000     0.01515152
       65           0.350000   0.500000   0.500000     0.01515152
       66           0.450000   0.500000   0.500000     0.01515152
--------------------------------------------------------------------------------


********************************************************************************
*  General input information                                                   *
********************************************************************************

  Species output for all configurations : 

--------------------------------------------------------------------------------
  Species    Type    Atomic    Atomic    Charge       Radii (Angs)     Library
                     Number     Mass       (e)     Cova   Ionic  VDW   Symbol
--------------------------------------------------------------------------------
    Zn       Core       30      65.39   2.000000   1.450  0.000  2.160          
    S        Core       16      32.07  -2.000000   1.020  0.000  1.700          
--------------------------------------------------------------------------------


  Lattice summation method               =    Ewald          (3-D)
                                         =    Parry          (2-D)
                                         =    Saunders et al (1-D)
  Accuracy factor for lattice sums       =   12.000


  Time limit = Infinity

  Maximum range for interatomic potentials =    100000.000000 Angstroms

  General interatomic potentials :

--------------------------------------------------------------------------------
Atom  Types   Potential      Parameter       Value         Units   Cutoffs(Ang)
  1     2                                                            Min /  Max 
--------------------------------------------------------------------------------
S    c Zn   c Force const   Longitudinal K  -5.9118240    eV*Ang^-2 0.000  2.400
                            Transverse   K  0.34649500    eV*Ang^-2 
--------------------------------------------------------------------------------
Zn   c Zn   c Force const   Longitudinal K -0.18200700    eV*Ang^-2 2.400  3.900
                            Transverse   K -0.94400000E-01eV*Ang^-2 
--------------------------------------------------------------------------------
S    c S    c Force const   Longitudinal K -0.18200700    eV*Ang^-2 2.400  3.900
                            Transverse   K -0.94400000E-01eV*Ang^-2 
--------------------------------------------------------------------------------
S    c Zn   c Force const   Longitudinal K -0.89500000E-01eV*Ang^-2 3.900  4.600
                            Transverse   K -0.39900000E-01eV*Ang^-2 
--------------------------------------------------------------------------------
S    c Zn   c Force const   Longitudinal K  0.45700000E-01eV*Ang^-2 4.600  6.000
                            Transverse   K -0.18490000E-01eV*Ang^-2 
--------------------------------------------------------------------------------

********************************************************************************
*  Output for configuration   1                                                *
********************************************************************************


  Components of energy : 

--------------------------------------------------------------------------------
  Interatomic potentials     =           0.00000000 eV    
  Monopole - monopole (real) =          -6.18803544 eV    
  Monopole - monopole (recip)=         -33.78953034 eV    
  Monopole - monopole (total)=         -39.97756578 eV    
--------------------------------------------------------------------------------
  Total lattice energy       =         -39.97756578 eV    
--------------------------------------------------------------------------------
  Total lattice energy       =           -3857.2240 kJ/(mole unit cells)
--------------------------------------------------------------------------------

  Born effective charge tensors : 

-------------------------------------------------------------------------------
  Atom             x           y             z
-------------------------------------------------------------------------------
    1 Zn    x       2.0000      0.0000      0.0000
            y       0.0000      2.0000      0.0000
            z       0.0000      0.0000      2.0000
-------------------------------------------------------------------------------
    2 S     x      -2.0000      0.0000      0.0000
            y       0.0000     -2.0000      0.0000
            z       0.0000      0.0000     -2.0000
-------------------------------------------------------------------------------




  Elastic Constant Matrix: (Units=GPa)

-------------------------------------------------------------------------------
  Indices      1         2         3         4         5         6    
-------------------------------------------------------------------------------
       1     70.3339 -165.1362 -213.1888   67.9566   -0.0000   -0.0000
       2   -165.1362   70.3339 -213.1888  -67.9566    0.0000    0.0000
       3   -213.1888 -213.1888  118.3865    0.0000    0.0000    0.0000
       4     67.9566  -67.9566    0.0000   69.6825    0.0000   -0.0000
       5     -0.0000    0.0000    0.0000    0.0000   69.6825   67.9566
       6     -0.0000    0.0000    0.0000   -0.0000   67.9566  117.7350
-------------------------------------------------------------------------------

  Elastic Constant Tensor Eigenvalues: (Units=GPa)

-------------------------------------------------------------------------------
     1 =  -307.9910     2 =    21.6299     3 =    25.6606
     4 =   165.7876     5 =   279.4919     6 =   331.5753
-------------------------------------------------------------------------------
  No. of non-positive eigenvalues = 1 => system is elastically unstable
-------------------------------------------------------------------------------


  Elastic Compliance Matrix: (Units=1/GPa)

-------------------------------------------------------------------------------
  Indices      1         2         3         4         5         6    
-------------------------------------------------------------------------------
       1    0.004278 -0.005438 -0.002088 -0.009475  0.000000  0.000000
       2   -0.005438  0.004278 -0.002088  0.009475  0.000000 -0.000000
       3   -0.002088 -0.002088  0.000928 -0.000000 -0.000000  0.000000
       4   -0.009475  0.009475 -0.000000  0.032832 -0.000000 -0.000000
       5    0.000000  0.000000 -0.000000 -0.000000  0.032832 -0.018951
       6    0.000000 -0.000000  0.000000 -0.000000 -0.018951  0.019432
-------------------------------------------------------------------------------

  Mechanical properties :

-------------------------------------------------------------------------------
  Convention :                    Reuss         Voigt         Hill
-------------------------------------------------------------------------------
  Bulk  Modulus (GPa)     =    -102.66368    -102.66368    -102.66368
  Shear Modulus (GPa)     =      45.22428     108.12453      76.67441
-------------------------------------------------------------------------------
  Velocity S-wave (km/s)  =       3.36322       5.20033       4.37919
  Velocity P-wave (km/s)  =       3.25515       3.22185       0.32838
-------------------------------------------------------------------------------
  Compressibility (1/GPa) =   -0.00974054
-------------------------------------------------------------------------------
  Stress axis :                     x             y             z
-------------------------------------------------------------------------------
  Youngs Moduli (GPa)     =     233.73420     233.73420    1077.21263
-------------------------------------------------------------------------------
  Poissons Ratio (x)      =                     1.27096       2.24877
  Poissons Ratio (y)      =       1.27096                     2.24877
  Poissons Ratio (z)      =       0.48794       0.48794
-------------------------------------------------------------------------------


  Piezoelectric Strain Matrix: (Units=C/m**2)

-------------------------------------------------------------------------------
  Indices      1         2         3         4         5         6    
-------------------------------------------------------------------------------
       x    -0.00000   0.00000   0.00000  -0.00000  12.77029  18.05992
       y    18.05992 -18.05992   0.00000  12.77029  -0.00000  -0.00000
       z    12.77029  12.77029 -25.54058   0.00000   0.00000  -0.00000
-------------------------------------------------------------------------------


  Piezoelectric Stress Matrix: (Units=10**-11 C/N)

-------------------------------------------------------------------------------
  Indices      1         2         3         4         5         6    
-------------------------------------------------------------------------------
       x     0.00000  -0.00000  -0.00000  -0.00000   7.70280  10.89341
       y     5.44670  -5.44670  -0.00000   7.70280  -0.00000   0.00000
       z     3.85140   3.85140  -7.70280   0.00000   0.00000  -0.00000
-------------------------------------------------------------------------------


  Static dielectric constant tensor : 

-------------------------------------------------------------------------------
              x         y         z
-------------------------------------------------------------------------------
       x    -0.31857   0.00000   0.00000
       y     0.00000  -0.31857   0.00000
       z     0.00000   0.00000  -0.31857
--------------------------------------------------------------------------------

  Static refractive indices : 

-------------------------------------------------------------------------------
    1 =   -0.56442      2 =   -0.56442      3 =   -0.56442
-------------------------------------------------------------------------------


  Phonon Calculation : 

  K direction for n-a correction at gamma =  1.00000  0.00000  0.00000

  Number of k points for this configuration =       66

--------------------------------------------------------------------------------
  K point      1 =   0.000000  0.000000  0.000000  Weight =    0.015
--------------------------------------------------------------------------------

  Frequencies (cm-1) [NB: Negative implies an imaginary mode]:

 -413.99 -413.99   -0.00    0.00    0.00  233.66


--------------------------------------------------------------------------------
  K point      2 =   0.025000  0.000000  0.025000  Weight =    0.015
--------------------------------------------------------------------------------

  Frequencies (cm-1) [NB: Negative implies an imaginary mode]:

 -414.38 -414.38  -14.61   19.68   19.68  232.85


--------------------------------------------------------------------------------
  K point      3 =   0.050000  0.000000  0.050000  Weight =    0.015
--------------------------------------------------------------------------------

  Frequencies (cm-1) [NB: Negative implies an imaginary mode]:

 -415.53 -415.53  -29.13   39.22   39.22  230.42


--------------------------------------------------------------------------------
  K point      4 =   0.075000  0.000000  0.075000  Weight =    0.015
--------------------------------------------------------------------------------

  Frequencies (cm-1) [NB: Negative implies an imaginary mode]:

 -417.40 -417.40  -43.46   58.50   58.50  226.35


--------------------------------------------------------------------------------
  K point      5 =   0.100000  0.000000  0.100000  Weight =    0.015
--------------------------------------------------------------------------------

  Frequencies (cm-1) [NB: Negative implies an imaginary mode]:

 -419.93 -419.93  -57.51   77.37   77.37  220.64


--------------------------------------------------------------------------------
  K point      6 =   0.125000  0.000000  0.125000  Weight =    0.015
--------------------------------------------------------------------------------

  Frequencies (cm-1) [NB: Negative implies an imaginary mode]:

 -423.02 -423.02  -71.18   95.72   95.72  213.29


--------------------------------------------------------------------------------
  K point      7 =   0.150000  0.000000  0.150000  Weight =    0.015
--------------------------------------------------------------------------------

  Frequencies (cm-1) [NB: Negative implies an imaginary mode]:

 -426.59 -426.59  -84.39  113.44  113.44  204.25


--------------------------------------------------------------------------------
  K point      8 =   0.175000  0.000000  0.175000  Weight =    0.015
--------------------------------------------------------------------------------

  Frequencies (cm-1) [NB: Negative implies an imaginary mode]:

 -430.52 -430.52  -97.03  130.43  130.43  193.49


--------------------------------------------------------------------------------
  K point      9 =   0.200000  0.000000  0.200000  Weight =    0.015
--------------------------------------------------------------------------------

  Frequencies (cm-1) [NB: Negative implies an imaginary mode]:

 -434.69 -434.69 -109.01  146.60  146.60  180.94


--------------------------------------------------------------------------------
  K point     10 =   0.225000  0.000000  0.225000  Weight =    0.015
--------------------------------------------------------------------------------

  Frequencies (cm-1) [NB: Negative implies an imaginary mode]:

 -439.00 -439.00 -120.24  161.85  161.85  166.48


--------------------------------------------------------------------------------
  K point     11 =   0.250000  0.000000  0.250000  Weight =    0.015
--------------------------------------------------------------------------------

  Frequencies (cm-1) [NB: Negative implies an imaginary mode]:

 -443.34 -443.34 -130.61  149.93  176.11  176.11


--------------------------------------------------------------------------------
  K point     12 =   0.275000  0.000000  0.275000  Weight =    0.015
--------------------------------------------------------------------------------

  Frequencies (cm-1) [NB: Negative implies an imaginary mode]:

 -447.61 -447.61 -140.05  130.89  189.29  189.29


--------------------------------------------------------------------------------
  K point     13 =   0.300000  0.000000  0.300000  Weight =    0.015
--------------------------------------------------------------------------------

  Frequencies (cm-1) [NB: Negative implies an imaginary mode]:

 -451.70 -451.70 -148.45  108.62  201.32  201.32


--------------------------------------------------------------------------------
  K point     14 =   0.325000  0.000000  0.325000  Weight =    0.015
--------------------------------------------------------------------------------

  Frequencies (cm-1) [NB: Negative implies an imaginary mode]:

 -455.53 -455.53 -155.75   81.23  212.12  212.12


--------------------------------------------------------------------------------
  K point     15 =   0.350000  0.000000  0.350000  Weight =    0.015
--------------------------------------------------------------------------------

  Frequencies (cm-1) [NB: Negative implies an imaginary mode]:

 -459.01 -459.01 -161.89   40.69  221.63  221.63


--------------------------------------------------------------------------------
  K point     16 =   0.375000  0.000000  0.375000  Weight =    0.015
--------------------------------------------------------------------------------

  Frequencies (cm-1) [NB: Negative implies an imaginary mode]:

 -462.08 -462.08 -166.83  -53.90  229.79  229.79


--------------------------------------------------------------------------------
  K point     17 =   0.400000  0.000000  0.400000  Weight =    0.015
--------------------------------------------------------------------------------

  Frequencies (cm-1) [NB: Negative implies an imaginary mode]:

 -464.68 -464.68 -170.57  -83.38  236.55  236.55


--------------------------------------------------------------------------------
  K point     18 =   0.425000  0.000000  0.425000  Weight =    0.015
--------------------------------------------------------------------------------

  Frequencies (cm-1) [NB: Negative implies an imaginary mode]:

 -466.75 -466.75 -173.17 -101.73  241.85  241.85


--------------------------------------------------------------------------------
  K point     19 =   0.450000  0.000000  0.450000  Weight =    0.015
--------------------------------------------------------------------------------

  Frequencies (cm-1) [NB: Negative implies an imaginary mode]:

 -468.26 -468.26 -174.77 -113.78  245.67  245.67


--------------------------------------------------------------------------------
  K point     20 =   0.475000  0.000000  0.475000  Weight =    0.015
--------------------------------------------------------------------------------

  Frequencies (cm-1) [NB: Negative implies an imaginary mode]:

 -469.17 -469.17 -175.57 -120.80  247.97  247.97


--------------------------------------------------------------------------------
  K point     21 =   0.500000  0.000000  0.500000  Weight =    0.015
--------------------------------------------------------------------------------

  Frequencies (cm-1) [NB: Negative implies an imaginary mode]:

 -469.48 -469.48 -175.81 -123.12  248.74  248.74


--------------------------------------------------------------------------------
  K point     22 =   0.525000  0.050000  0.525000  Weight =    0.015
--------------------------------------------------------------------------------

  Frequencies (cm-1) [NB: Negative implies an imaginary mode]:

 -469.48 -469.21 -183.44 -126.95  247.44  256.83


--------------------------------------------------------------------------------
  K point     23 =   0.550000  0.100000  0.550000  Weight =    0.015
--------------------------------------------------------------------------------

  Frequencies (cm-1) [NB: Negative implies an imaginary mode]:

 -469.43 -468.39 -205.32 -128.74  243.57  275.78


--------------------------------------------------------------------------------
  K point     24 =   0.575000  0.150000  0.575000  Weight =    0.015
--------------------------------------------------------------------------------

  Frequencies (cm-1) [NB: Negative implies an imaginary mode]:

 -469.26 -467.03 -232.76 -123.65  237.21  297.65


--------------------------------------------------------------------------------
  K point     25 =   0.600000  0.200000  0.600000  Weight =    0.015
--------------------------------------------------------------------------------

  Frequencies (cm-1) [NB: Negative implies an imaginary mode]:

 -468.85 -465.13 -258.48 -113.63  228.51  318.13


--------------------------------------------------------------------------------
  K point     26 =   0.625000  0.250000  0.625000  Weight =    0.015
--------------------------------------------------------------------------------

  Frequencies (cm-1) [NB: Negative implies an imaginary mode]:

 -468.09 -462.69 -279.89  -99.83  217.66  335.52


--------------------------------------------------------------------------------
  K point     27 =   0.650000  0.300000  0.650000  Weight =    0.015
--------------------------------------------------------------------------------

  Frequencies (cm-1) [NB: Negative implies an imaginary mode]:

 -466.86 -459.75 -296.29  -82.41  204.90  349.22


--------------------------------------------------------------------------------
  K point     28 =   0.675000  0.350000  0.675000  Weight =    0.015
--------------------------------------------------------------------------------

  Frequencies (cm-1) [NB: Negative implies an imaginary mode]:

 -465.10 -456.34 -307.56  -60.47  190.52  359.09


--------------------------------------------------------------------------------
  K point     29 =   0.700000  0.400000  0.700000  Weight =    0.015
--------------------------------------------------------------------------------

  Frequencies (cm-1) [NB: Negative implies an imaginary mode]:

 -462.74 -452.51 -313.76  -27.80  174.84  365.16


--------------------------------------------------------------------------------
  K point     30 =   0.725000  0.450000  0.725000  Weight =    0.015
--------------------------------------------------------------------------------

  Frequencies (cm-1) [NB: Negative implies an imaginary mode]:

 -459.74 -448.37 -315.05   41.12  158.21  367.59


--------------------------------------------------------------------------------
  K point     31 =   0.750000  0.500000  0.750000  Weight =    0.015
--------------------------------------------------------------------------------

  Frequencies (cm-1) [NB: Negative implies an imaginary mode]:

 -456.09 -443.99 -311.63   60.10  140.99  366.56


--------------------------------------------------------------------------------
  K point     32 =   0.775000  0.550000  0.775000  Weight =    0.015
--------------------------------------------------------------------------------

  Frequencies (cm-1) [NB: Negative implies an imaginary mode]:

 -451.79 -439.51 -303.70   70.12  123.55  362.28


--------------------------------------------------------------------------------
  K point     33 =   0.800000  0.600000  0.800000  Weight =    0.015
--------------------------------------------------------------------------------

  Frequencies (cm-1) [NB: Negative implies an imaginary mode]:

 -446.90 -435.04 -291.44   74.70  106.27  354.98


--------------------------------------------------------------------------------
  K point     34 =   0.825000  0.650000  0.825000  Weight =    0.015
--------------------------------------------------------------------------------

  Frequencies (cm-1) [NB: Negative implies an imaginary mode]:

 -441.56 -430.72 -274.92   75.02   89.49  344.84


--------------------------------------------------------------------------------
  K point     35 =   0.850000  0.700000  0.850000  Weight =    0.015
--------------------------------------------------------------------------------

  Frequencies (cm-1) [NB: Negative implies an imaginary mode]:

 -435.95 -426.67 -254.12   71.70   73.50  332.04


--------------------------------------------------------------------------------
  K point     36 =   0.875000  0.750000  0.875000  Weight =    0.015
--------------------------------------------------------------------------------

  Frequencies (cm-1) [NB: Negative implies an imaginary mode]:

 -430.37 -423.03 -228.80   58.55   65.18  316.74


--------------------------------------------------------------------------------
  K point     37 =   0.900000  0.800000  0.900000  Weight =    0.015
--------------------------------------------------------------------------------

  Frequencies (cm-1) [NB: Negative implies an imaginary mode]:

 -425.13 -419.90 -198.44   44.77   55.86  299.16


--------------------------------------------------------------------------------
  K point     38 =   0.925000  0.850000  0.925000  Weight =    0.015
--------------------------------------------------------------------------------

  Frequencies (cm-1) [NB: Negative implies an imaginary mode]:

 -420.57 -417.37 -162.04   32.21   44.15  279.68


--------------------------------------------------------------------------------
  K point     39 =   0.950000  0.900000  0.950000  Weight =    0.015
--------------------------------------------------------------------------------

  Frequencies (cm-1) [NB: Negative implies an imaginary mode]:

 -417.02 -415.51 -117.92   20.75   30.55  259.41


--------------------------------------------------------------------------------
  K point     40 =   0.975000  0.950000  0.975000  Weight =    0.015
--------------------------------------------------------------------------------

  Frequencies (cm-1) [NB: Negative implies an imaginary mode]:

 -414.76 -414.37  -63.77   10.15   15.62  241.57


--------------------------------------------------------------------------------
  K point     41 =   0.000000  0.000000  0.000000  Weight =    0.015
--------------------------------------------------------------------------------

  Frequencies (cm-1) [NB: Negative implies an imaginary mode]:

 -413.99 -413.99   -0.00    0.00    0.00  233.66


--------------------------------------------------------------------------------
  K point     42 =   0.975000  0.975000  0.975000  Weight =    0.015
--------------------------------------------------------------------------------

  Frequencies (cm-1) [NB: Negative implies an imaginary mode]:

 -414.18 -414.18  -48.01   11.05   11.05  237.98


--------------------------------------------------------------------------------
  K point     43 =   0.950000  0.950000  0.950000  Weight =    0.015
--------------------------------------------------------------------------------

  Frequencies (cm-1) [NB: Negative implies an imaginary mode]:

 -414.75 -414.75  -91.60   22.01   22.01  248.82


--------------------------------------------------------------------------------
  K point     44 =   0.925000  0.925000  0.925000  Weight =    0.015
--------------------------------------------------------------------------------

  Frequencies (cm-1) [NB: Negative implies an imaginary mode]:

 -415.68 -415.68 -129.59   32.80   32.80  262.67


--------------------------------------------------------------------------------
  K point     45 =   0.900000  0.900000  0.900000  Weight =    0.015
--------------------------------------------------------------------------------

  Frequencies (cm-1) [NB: Negative implies an imaginary mode]:

 -416.95 -416.95 -162.70   43.33   43.33  277.25


--------------------------------------------------------------------------------
  K point     46 =   0.875000  0.875000  0.875000  Weight =    0.015
--------------------------------------------------------------------------------

  Frequencies (cm-1) [NB: Negative implies an imaginary mode]:

 -418.51 -418.51 -191.88   53.53   53.53  291.50


--------------------------------------------------------------------------------
  K point     47 =   0.850000  0.850000  0.850000  Weight =    0.015
--------------------------------------------------------------------------------

  Frequencies (cm-1) [NB: Negative implies an imaginary mode]:

 -420.31 -420.31 -217.91   63.33   63.33  304.99


--------------------------------------------------------------------------------
  K point     48 =   0.825000  0.825000  0.825000  Weight =    0.015
--------------------------------------------------------------------------------

  Frequencies (cm-1) [NB: Negative implies an imaginary mode]:

 -422.30 -422.30 -241.31   72.66   72.66  317.53


--------------------------------------------------------------------------------
  K point     49 =   0.800000  0.800000  0.800000  Weight =    0.015
--------------------------------------------------------------------------------

  Frequencies (cm-1) [NB: Negative implies an imaginary mode]:

 -424.43 -424.43 -262.44   81.47   81.47  329.07


--------------------------------------------------------------------------------
  K point     50 =   0.775000  0.775000  0.775000  Weight =    0.015
--------------------------------------------------------------------------------

  Frequencies (cm-1) [NB: Negative implies an imaginary mode]:

 -426.65 -426.65 -281.54   89.71   89.71  339.61


--------------------------------------------------------------------------------
  K point     51 =   0.750000  0.750000  0.750000  Weight =    0.015
--------------------------------------------------------------------------------

  Frequencies (cm-1) [NB: Negative implies an imaginary mode]:

 -428.88 -428.88 -298.78   97.35   97.35  349.15


--------------------------------------------------------------------------------
  K point     52 =   0.725000  0.725000  0.725000  Weight =    0.015
--------------------------------------------------------------------------------

  Frequencies (cm-1) [NB: Negative implies an imaginary mode]:

 -431.09 -431.09 -314.24  104.34  104.34  357.72


--------------------------------------------------------------------------------
  K point     53 =   0.700000  0.700000  0.700000  Weight =    0.015
--------------------------------------------------------------------------------

  Frequencies (cm-1) [NB: Negative implies an imaginary mode]:

 -433.21 -433.21 -328.01  110.65  110.65  365.33


--------------------------------------------------------------------------------
  K point     54 =   0.675000  0.675000  0.675000  Weight =    0.015
--------------------------------------------------------------------------------

  Frequencies (cm-1) [NB: Negative implies an imaginary mode]:

 -435.20 -435.20 -340.13  116.27  116.27  372.02


--------------------------------------------------------------------------------
  K point     55 =   0.650000  0.650000  0.650000  Weight =    0.015
--------------------------------------------------------------------------------

  Frequencies (cm-1) [NB: Negative implies an imaginary mode]:

 -437.01 -437.01 -350.62  121.16  121.16  377.78


--------------------------------------------------------------------------------
  K point     56 =   0.625000  0.625000  0.625000  Weight =    0.015
--------------------------------------------------------------------------------

  Frequencies (cm-1) [NB: Negative implies an imaginary mode]:

 -438.62 -438.62 -359.50  125.33  125.33  382.65


--------------------------------------------------------------------------------
  K point     57 =   0.600000  0.600000  0.600000  Weight =    0.015
--------------------------------------------------------------------------------

  Frequencies (cm-1) [NB: Negative implies an imaginary mode]:

 -439.97 -439.97 -366.76  128.76  128.76  386.61


--------------------------------------------------------------------------------
  K point     58 =   0.575000  0.575000  0.575000  Weight =    0.015
--------------------------------------------------------------------------------

  Frequencies (cm-1) [NB: Negative implies an imaginary mode]:

 -441.05 -441.05 -372.41  131.43  131.43  389.69


--------------------------------------------------------------------------------
  K point     59 =   0.550000  0.550000  0.550000  Weight =    0.015
--------------------------------------------------------------------------------

  Frequencies (cm-1) [NB: Negative implies an imaginary mode]:

 -441.84 -441.84 -376.45  133.34  133.34  391.89


--------------------------------------------------------------------------------
  K point     60 =   0.525000  0.525000  0.525000  Weight =    0.015
--------------------------------------------------------------------------------

  Frequencies (cm-1) [NB: Negative implies an imaginary mode]:

 -442.32 -442.32 -378.88  134.49  134.49  393.20


--------------------------------------------------------------------------------
  K point     61 =   0.500000  0.500000  0.500000  Weight =    0.015
--------------------------------------------------------------------------------

  Frequencies (cm-1) [NB: Negative implies an imaginary mode]:

 -442.48 -442.48 -379.69  134.87  134.87  393.64


--------------------------------------------------------------------------------
  K point     62 =   0.050000  0.500000  0.500000  Weight =    0.015
--------------------------------------------------------------------------------

  Frequencies (cm-1) [NB: Negative implies an imaginary mode]:

 -469.17 -468.91 -182.97 -125.48  246.67  256.28


--------------------------------------------------------------------------------
  K point     63 =   0.150000  0.500000  0.500000  Weight =    0.015
--------------------------------------------------------------------------------

  Frequencies (cm-1) [NB: Negative implies an imaginary mode]:

 -466.66 -464.52 -230.93 -122.07  230.65  298.81


--------------------------------------------------------------------------------
  K point     64 =   0.250000  0.500000  0.500000  Weight =    0.015
--------------------------------------------------------------------------------

  Frequencies (cm-1) [NB: Negative implies an imaginary mode]:

 -461.46 -456.97 -290.49  -83.17  201.47  344.54


--------------------------------------------------------------------------------
  K point     65 =   0.350000  0.500000  0.500000  Weight =    0.015
--------------------------------------------------------------------------------

  Frequencies (cm-1) [NB: Negative implies an imaginary mode]:

 -453.37 -448.75 -341.95   78.18  166.14  376.66


--------------------------------------------------------------------------------
  K point     66 =   0.450000  0.500000  0.500000  Weight =    0.015
--------------------------------------------------------------------------------

  Frequencies (cm-1) [NB: Negative implies an imaginary mode]:

 -444.32 -443.25 -374.78  128.92  139.01  391.84


--------------------------------------------------------------------------------
  Phonon properties (per mole of unit cells): Temperature =      0.000 K
--------------------------------------------------------------------------------
  Zero point energy            =        0.030027 eV
--------------------------------------------------------------------------------

  Phonon density of states : 

--------------------------------------------------------------------------------
 Frequency (cm-1) Density of States                                             
--------------------------------------------------------------------------------
    0.00000 |*********************                                         0.022
    6.15068 |****************                                              0.017
   12.30135 |*****                                                         0.006
   18.45203 |***************************                                   0.028
   24.60271 |*****                                                         0.006
   30.75338 |****************                                              0.017
   36.90406 |*********************                                         0.022
   43.05473 |*********************                                         0.022
   49.20541 |**********                                                    0.011
   55.35609 |***************************                                   0.028
   61.50676 |****************                                              0.017
   67.65744 |***************************                                   0.028
   73.80812 |***************************                                   0.028
   79.95879 |****************                                              0.017
   86.10947 |****************                                              0.017
   92.26015 |*********************                                         0.022
   98.41082 |**********                                                    0.011
  104.56150 |*********************                                         0.022
  110.71218 |*********************                                         0.022
  116.86285 |**********                                                    0.011
  123.01353 |********************************                              0.033
  129.16420 |************************************************************  0.061
  135.31488 |**********                                                    0.011
  141.46556 |**********                                                    0.011
  147.61623 |*****                                                         0.006
  153.76691 |*****                                                         0.006
  159.91759 |**********                                                    0.011
  166.06826 |**********                                                    0.011
  172.21894 |****************                                              0.017
  178.36962 |*****                                                         0.006
  184.52029 |****************                                              0.017
  190.67097 |*****                                                         0.006
  196.82164 |****************                                              0.017
  202.97232 |**********                                                    0.011
  209.12300 |****************                                              0.017
  215.27367 |**********                                                    0.011
  221.42435 |****************                                              0.017
  227.57503 |*******************************************                   0.044
  233.72570 |*********************                                         0.022
  239.87638 |********************************                              0.033
  246.02706 |**************************************                        0.039
  252.17773 |**********                                                    0.011
  258.32841 |**********                                                    0.011
  264.47909 |                                                              0.000
  270.62976 |*****                                                         0.006
  276.78044 |**********                                                    0.011
  282.93111 |                                                              0.000
  289.08179 |*****                                                         0.006
  295.23247 |****************                                              0.017
  301.38314 |*****                                                         0.006
  307.53382 |                                                              0.000
  313.68450 |****************                                              0.017
  319.83517 |                                                              0.000
  325.98585 |**********                                                    0.011
  332.13653 |*****                                                         0.006
  338.28720 |*****                                                         0.006
  344.43788 |*********************                                         0.022
  350.58855 |*****                                                         0.006
  356.73923 |****************                                              0.017
  362.88991 |*********************                                         0.022
  369.04058 |*****                                                         0.006
  375.19126 |**********                                                    0.011
  381.34194 |**********                                                    0.011
  387.49261 |***************************                                   0.028
--------------------------------------------------------------------------------




  Phonon density of states written on channel 17



  XYZ File written as gulp.xyz


  Time to end of properties =       0.0200 seconds


  Peak dynamic memory used =       0.52 MB 


  Timing analysis for GULP :

--------------------------------------------------------------------------------
  Task / Subroutine                                          Time (Seconds)
--------------------------------------------------------------------------------
  Calculation of reciprocal space energy and derivatives          0.0040
  Calculation of real space energy and derivatives                0.0160
  Calculation of phonons                                          0.0160
--------------------------------------------------------------------------------
  Total CPU time                                                  0.0200
--------------------------------------------------------------------------------


  Job Finished at 15:00.47 19th June       2019                               

