********************************************************************************
*                       GENERAL UTILITY LATTICE PROGRAM                        *
*                                 Julian Gale                                  *
*                       Curtin Institute for Computation                       *
*                           Department of Chemistry                            *
*                    Curtin University, Western Australia                      *
********************************************************************************
* Version = 5.1.0 * Last modified =  15th August 2018                          *
********************************************************************************
*  optimise     - perform optimisation run                                     *
*  conv         - constant volume calculation                                  *
*  hessian      - output inverse Hessian matrix when calculated exactly        *
********************************************************************************

  Job Started  at 15:17.04 16th August     2018                               

  Number of CPUs =     1

  Host name      = M-A0010516-S                            


  Total number of configurations input =      1

********************************************************************************
*  Input for Configuration =   1                                               *
********************************************************************************

  Formula = SiO5                                                        

  Number of irreducible atoms/shells =       6


  Total number atoms/shells =       6

  Dimensionality = 0               :  Cluster


  Charge on cluster =   0.000000


  Initial cluster dipoles : x =      0.000000 e.Angs
                            y =      0.000000 e.Angs
                            z =      0.000000 e.Angs

  Temperature of configuration =  0.000     K 

  Symmetry number =      1

  Cartesian coordinates of cluster :

--------------------------------------------------------------------------------
   No.  Atomic       x           y          z         Charge      Occupancy
        Label      (Angs)      (Angs)     (Angs)        (e)         (Frac)  
--------------------------------------------------------------------------------
      1 Si1   c      0.0000      0.0000      0.0000     0.00000    1.000000    
      2 O1    c     -2.5000 *    0.0000 *    0.0000 *   0.00000    1.000000    
      3 O1    c      2.7000 *    0.0000 *    0.0000 *   0.00000    1.000000    
      4 O1    c      0.0000 *    2.5000 *    0.0000 *   0.00000    1.000000    
      5 O1    c      0.0000 *   -2.6000 *    0.0000 *   0.00000    1.000000    
      6 O1    c      0.0000 *    0.0000 *    2.5000 *   0.00000    1.000000    
--------------------------------------------------------------------------------



********************************************************************************
*  General input information                                                   *
********************************************************************************

  Species output for all configurations : 

--------------------------------------------------------------------------------
  Species    Type    Atomic    Atomic    Charge       Radii (Angs)     Library
                     Number     Mass       (e)     Cova   Ionic  VDW   Symbol
--------------------------------------------------------------------------------
    O1       Core        8      16.00   0.000000   0.730  0.000  1.360 O        
    Si1      Core       14      28.09   0.000000   1.200  0.000  2.100 Si       
--------------------------------------------------------------------------------


  Accuracy factor for short range sums = 12.000

  Time limit = Infinity

  Bond-order two-body potentials :

--------------------------------------------------------------------------------
Atom  Types                 A                 B                  Cutoffs(Ang)   
  1     2                 ZetaA             ZetaB                Taper    Max   
--------------------------------------------------------------------------------
O1   c O1   c          3331.0600000000       260.4770000000     2.2607   3.3129
                          3.783360000          3.344020000    
--------------------------------------------------------------------------------
Si1  c Si1  c          1830.7900000000       471.1950000000     2.4481   3.0835
                          2.623920000          1.888910000    
--------------------------------------------------------------------------------
O1   c Si1  c          2586.8593540000       350.2591000000     2.3525   3.1962
                          3.943670000          2.315955000    
--------------------------------------------------------------------------------

  Bond-order repulsive :

--------------------------------------------------------------------------------
Atom    Type         Alpha            N             Lambda          M           
 1/2     1/2                                                                    
--------------------------------------------------------------------------------
O1   c             1.00270000       3.98638000       3.34402000       1
O1   c
--------------------------------------------------------------------------------
Si1  c             0.00000110       0.78766000       1.88891000       3
Si1  c
--------------------------------------------------------------------------------
O1   c             1.00270000       3.98638000       2.31595500       1
Si1  c
--------------------------------------------------------------------------------
Si1  c             0.00000110       0.78766000       2.31595500       3
O1   c
--------------------------------------------------------------------------------

  Bond-order attractive :

--------------------------------------------------------------------------------
Atom    Type         Alpha            N             Lambda          M           
 1/2     1/2           C              D                H                        
--------------------------------------------------------------------------------
O1   c  Theta       1.00270000       3.98638000       3.34402000       1
O1   c              0.00000000       1.00000000      -0.52909000
--------------------------------------------------------------------------------
Si1  c  Theta       0.00000110       0.78766000       1.88891000       3
Si1  c         100390.00000000      16.21701000      -0.59784000
--------------------------------------------------------------------------------
O1   c  Theta       1.00270000       3.98638000       2.31595500       1
Si1  c              0.00000000       1.00000000      -0.52909000
--------------------------------------------------------------------------------
Si1  c  Theta       0.00000110       0.78766000       2.31595500       3
O1   c         100390.00000000      16.21701000      -0.59784000
--------------------------------------------------------------------------------

  Bond-order coordination :

--------------------------------------------------------------------------------
Atom              C1              C2              Z0              E0            
--------------------------------------------------------------------------------
Si1  c         -0.12380000       0.28520000       3.70000000    -103.73300000
--------------------------------------------------------------------------------
O1   c         -0.00380000       0.13930000       2.80000000    -432.15800000
--------------------------------------------------------------------------------

********************************************************************************
*  Output for configuration   1                                                *
********************************************************************************


  Number of neighbours for atoms :

  i  Nat   N
   1  14      5
   2   8      1
   3   8      1
   4   8      1
   5   8      1
   6   8      1

  Neighbours of atoms :

   1    2    3    4    5    6
   2    1
   3    1
   4    1
   5    1
   6    1

  Components of energy : 

--------------------------------------------------------------------------------
  Interatomic potentials     =           0.00000000 eV    
  Bond-order potentials      =       -2267.13825956 eV    
  Monopole - monopole (real) =           0.00000000 eV    
--------------------------------------------------------------------------------
  Total lattice energy       =       -2267.13825956 eV    
--------------------------------------------------------------------------------
  Total lattice energy       =         -218744.1857 kJ/mol
--------------------------------------------------------------------------------


  Number of variables =       15

  Maximum number of calculations  =             1
  Maximum Hessian update interval =            10
  Maximum step size               =   1.000000000
  Maximum parameter tolerance     =   0.000010000
  Maximum function  tolerance     =   0.000010000
  Maximum gradient  tolerance     =   0.001000000
  Maximum gradient  component     =   0.010000000

  Symmetry not applied to optimisation

  Newton-Raphson optimiser to be used

  BFGS hessian update to be used

  Lower half triangular hessian to be used

  Start of cluster optimisation :


  Number of neighbours for atoms :

  i  Nat   N
   1  14      5
   2   8      1
   3   8      1
   4   8      1
   5   8      1
   6   8      1

  Neighbours of atoms :

   1    2    3    4    5    6
   2    1
   3    1
   4    1
   5    1
   6    1
  Cycle:      0 Energy:     -2267.138260  Gnorm:      0.338071  CPU:    0.009

 Hessian Matrix :

       -1.7015
        0.0194      1.0154
        0.0922     -0.0005      0.9956
       -0.0626      0.0040      0.0096     -4.9954
       -0.0003     -0.0085      0.0000     -0.0205      0.6418
       -0.0027      0.0000     -0.0066     -0.0769     -0.0003      0.6328
       -0.0821     -0.0223      0.0036     -0.0894      0.0125     -0.0015      1.0119
       -0.0941     -0.0845      0.0053      0.1678     -0.0407      0.0043      0.0469     -1.7214
       -0.0054     -0.0037      0.0114      0.0138     -0.0022      0.0054      0.0014     -0.0945      0.9972
       -0.0632      0.0175      0.0029     -0.0625     -0.0095     -0.0011     -0.0115     -0.0003      0.0000      0.8501
        0.1411     -0.0869     -0.0096     -0.1286     -0.0457     -0.0046      0.0038     -0.0577     -0.0069     -0.0372
     -4.0007
       -0.0046      0.0024      0.0081      0.0091      0.0015      0.0038      0.0000      0.0032     -0.0099      0.0008
      0.0853      0.8397
       -0.0810      0.0005     -0.0186     -0.0857     -0.0003      0.0107      0.0090     -0.0007      0.0012      0.0063
      0.0046      0.0010      1.0072
       -0.0006      0.0078     -0.0005      0.0044      0.0033     -0.0003      0.0014     -0.0836      0.0194     -0.0008
     -0.0852     -0.0154      0.0002      1.0123
       -0.0890      0.0007     -0.0768      0.1517      0.0006     -0.0364     -0.0008      0.0892     -0.0770     -0.0008
     -0.1322     -0.0592      0.0441     -0.0188     -1.7389

 Inverse Hessian Matrix :

   -0.58425206
    0.01174332  0.98002596
    0.05538707 -0.00059859  0.99656723
    0.01224735 -0.00071404 -0.00086719 -0.20075268
    0.00101487  0.00788138 -0.00000944 -0.00711581  1.55503008
    0.00149557  0.00010259  0.00777645 -0.02510125 -0.00007523  1.57583095
   -0.04783683  0.02442073  0.00074573 -0.01576103 -0.01762187  0.00034635  0.98265156
    0.03364899 -0.04703225 -0.00156973 -0.02175795 -0.03737809  0.00019265  0.02710709 -0.57774161
    0.00157540 -0.00068730 -0.01491265 -0.00049028 -0.00001711 -0.01102905  0.00130145 -0.05599574  0.99474348
   -0.04423631 -0.01981076  0.00047861 -0.01372377  0.01572063  0.00045988  0.00790604  0.00211689  0.00011209  1.17224533
   -0.02260550 -0.01974663  0.00090976  0.00808676 -0.01709318 -0.00000768 -0.00111970  0.01372846  0.00144877 -0.01185453
 -0.25020248
    0.00055854 -0.00084279 -0.01285944  0.00025700 -0.00103987 -0.00944231  0.00002281 -0.00225507  0.00831099  0.00016885
  0.02636625  1.18580248
   -0.04548186  0.00038243  0.02475511 -0.01481905  0.00009074 -0.01713094 -0.01410621  0.00157682  0.00070869 -0.01208663
 -0.00079645  0.00048202  0.98769693
    0.00097353 -0.01322678 -0.00031538 -0.00054856 -0.00953697 -0.00004238  0.00069604 -0.04554346 -0.02434912  0.00023944
 -0.01900264  0.01908263  0.00041045  0.98313541
    0.03073888 -0.00094995 -0.04550726 -0.01964905 -0.00057709 -0.03518650  0.00161514 -0.03118670 -0.04628305  0.00118526
  0.02075869 -0.04227795  0.02544081 -0.01119030 -0.57452820


  ** Hessian calculated **
  ** Cosine =  -0.947230

  Number of neighbours for atoms :

  i  Nat   N
   1  14      5
   2   8      1
   3   8      1
   4   8      1
   5   8      1
   6   8      1

  Neighbours of atoms :

   1    2    3    4    5    6
   2    1
   3    1
   4    1
   5    1
   6    1

  Number of neighbours for atoms :

  i  Nat   N
   1  14      5
   2   8      4
   3   8      1
   4   8      3
   5   8      3
   6   8      4

  Neighbours of atoms :

   1    2    3    4    5    6
   2    1    4    5    6
   3    1
   4    1    2    6
   5    1    2    6
   6    1    2    4    5

  Number of neighbours for atoms :

  i  Nat   N
   1  14      5
   2   8      4
   3   8      3
   4   8      4
   5   8      3
   6   8      5

  Neighbours of atoms :

   1    2    3    4    5    6
   2    1    4    5    6
   3    1    4    6
   4    1    2    3    6
   5    1    2    6
   6    1    2    3    4    5

  Number of neighbours for atoms :

  i  Nat   N
   1  14      5
   2   8      4
   3   8      4
   4   8      4
   5   8      4
   6   8      5

  Neighbours of atoms :

   1    2    3    4    5    6
   2    1    4    5    6
   3    1    4    5    6
   4    1    2    3    6
   5    1    2    3    6
   6    1    2    3    4    5

  Number of neighbours for atoms :

  i  Nat   N
   1  14      5
   2   8      4
   3   8      3
   4   8      4
   5   8      3
   6   8      5

  Neighbours of atoms :

   1    2    3    4    5    6
   2    1    4    5    6
   3    1    4    6
   4    1    2    3    6
   5    1    2    6
   6    1    2    3    4    5

  Number of neighbours for atoms :

  i  Nat   N
   1  14      5
   2   8      4
   3   8      3
   4   8      4
   5   8      3
   6   8      5

  Neighbours of atoms :

   1    2    3    4    5    6
   2    1    4    5    6
   3    1    4    6
   4    1    2    3    6
   5    1    2    6
   6    1    2    3    4    5
  Cycle:      1 Energy:     -2274.649484  Gnorm:      0.360512  CPU:    0.009


  **** Maximum number of function calls has been reached ****


  Final energy =   -2274.64948405 eV
  Final Gnorm  =       0.36051190

  Components of energy : 

--------------------------------------------------------------------------------
  Interatomic potentials     =           0.00000000 eV    
  Bond-order potentials      =       -2274.64948405 eV    
  Monopole - monopole (real) =           0.00000000 eV    
--------------------------------------------------------------------------------
  Total lattice energy       =       -2274.64948405 eV    
--------------------------------------------------------------------------------
  Total lattice energy       =         -219468.9040 kJ/mol
--------------------------------------------------------------------------------

  Final cartesian coordinates of atoms :

--------------------------------------------------------------------------------
   No.  Atomic        x           y          z          Radius
        Label       (Angs)      (Angs)     (Angs)       (Angs) 
--------------------------------------------------------------------------------
     1  Si1   c     0.000000    0.000000    0.000000    0.000000
     2  O1    c    -1.738507    0.004402    0.018605    0.000000
     3  O1    c     2.520972    0.003588    0.014450    0.000000
     4  O1    c    -0.008784    1.744320    0.018760    0.000000
     5  O1    c    -0.007811   -2.314391    0.016377    0.000000
     6  O1    c    -0.008588    0.004351    1.760364    0.000000
--------------------------------------------------------------------------------


  Final Cartesian derivatives :

--------------------------------------------------------------------------------
   No.  Atomic          x             y             z           Radius
        Label       (eV/Angs)     (eV/Angs)    (eV/Angs)      (eV/Angs)
--------------------------------------------------------------------------------
      1 Si1   c       0.000000      0.000000      0.000000      0.000000
      2 O1    c      -1.897340      0.418904      0.591221      0.000000
      3 O1    c       1.970679      0.019424      0.028925      0.000000
      4 O1    c      -0.541776      2.202327      0.581475      0.000000
      5 O1    c      -0.117153     -3.170642      0.119711      0.000000
      6 O1    c      -0.546264      0.427396      2.278004      0.000000
--------------------------------------------------------------------------------
  Maximum abs         1.970679      3.170642      2.278004      0.000000
--------------------------------------------------------------------------------


  Time to end of optimisation =       0.0093 seconds


  Peak dynamic memory used =       0.53 MB 


  Timing analysis for GULP :

--------------------------------------------------------------------------------
  Task / Subroutine                                          Time (Seconds)
--------------------------------------------------------------------------------
  Calculation of Bond Order energy and derivatives                0.0007
  Calculation and manipulation of Hessian matrix                  0.0001
--------------------------------------------------------------------------------
  Total CPU time                                                  0.0093
--------------------------------------------------------------------------------


  Job Finished at 15:17.04 16th August     2018                               

