********************************************************************************
*                       GENERAL UTILITY LATTICE PROGRAM                        *
*                                 Julian Gale                                  *
*                       Curtin Institute for Computation                       *
*                           Department of Chemistry                            *
*                    Curtin University, Western Australia                      *
********************************************************************************
* Version = 5.1.0 * Last modified =   4th July 2018                            *
********************************************************************************
*  optimise     - perform optimisation run                                     *
*  distance     - calculate distances                                          *
********************************************************************************
* Sodium ion migration in quartz : uses the translate option                   *
* to perform 2-D optimisation for sodium at intervals along                    *
* the channel within quartz structure                                          *
********************************************************************************


  Job Started  at 15:18.31  4th July       2018                               

  Number of CPUs =     1

  Host name      = M-A0010516-S                            


  Total number of configurations input =      1

********************************************************************************
*  Input for Configuration =   1                                               *
********************************************************************************

  Formula = Si2AlNaO6                                                   

  Number of irreducible atoms/shells =      16


  Total number atoms/shells =      16

  Dimensionality = 3               :  Bulk   



  Cartesian lattice vectors (Angstroms) :

        4.914730    0.000000    0.000000
       -2.457365    4.256281    0.000000
        0.000000    0.000000    5.406570

  Cell parameters (Angstroms/Degrees):

  a =       4.9147    alpha =  90.0000
  b =       4.9147    beta  =  90.0000
  c =       5.4066    gamma = 120.0000

  Initial cell volume =         113.097184 Angs**3

  Temperature of configuration =  0.000     K 

  Pressure of configuration =         0.000 GPa 

  Fractional coordinates of asymmetric unit :

--------------------------------------------------------------------------------
   No.  Atomic       x           y          z         Charge      Occupancy
        Label      (Frac)      (Frac)     (Frac)        (e)         (Frac)  
--------------------------------------------------------------------------------
      1 Si    c    0.000000    0.468200    0.666666     4.00000    1.000000    
      2 Si    c    0.562283 *  0.553474 *  0.985986 *   4.00000    1.000000    
      3 Al    c    0.445925 *  0.991213 *  0.348165 *   3.00000    1.000000    
      4 Na    c    0.996987 *  0.272679 *  0.172946     1.00000    1.000000    
      5 O     c    0.442025 *  0.289142 *  0.194695 *   0.86902    1.000000    
      6 O     c    0.727571 *  0.131612 *  0.581260 *   0.86902    1.000000    
      7 O     c    0.900494 *  0.614677 *  0.895918 *   0.86902    1.000000    
      8 O     c    0.089785 *  0.698420 *  0.439177 *   0.86902    1.000000    
      9 O     c    0.574325 *  0.846687 *  0.110388 *   0.86902    1.000000    
     10 O     c    0.293304 *  0.427050 *  0.765705 *   0.86902    1.000000    
     11 O     s    0.451160 *  0.296281 *  0.182836 *  -2.86902    1.000000    
     12 O     s    0.741396 *  0.160744 *  0.575279 *  -2.86902    1.000000    
     13 O     s    0.874954 *  0.591869 *  0.883898 *  -2.86902    1.000000    
     14 O     s    0.104617 *  0.690857 *  0.457113 *  -2.86902    1.000000    
     15 O     s    0.569630 *  0.824747 *  0.110755 *  -2.86902    1.000000    
     16 O     s    0.289597 *  0.442377 *  0.777587 *  -2.86902    1.000000    
--------------------------------------------------------------------------------



  Distance calculation :


  Cutoff for distances  =      2.500000 Angstroms

--------------------------------------------------------------------------------
  Asymmetric unit site  Full lattice sites    No.  Distance      No.  Distance
      No.   At.No.            At.No.                (Angs)             (Angs) 
--------------------------------------------------------------------------------
       1   Si    core        O     core         1    1.5775        1    1.5898
                                                1    1.6266        1    1.6423
                             O     shell        1    1.4774        1    1.4907
                                                1    1.5812        1    1.6069
--------------------------------------------------------------------------------
       2   Si    core        O     core         1    1.5644        1    1.5945
                                                1    1.6095        1    1.6525
                             O     shell        1    1.4784        1    1.5292
                                                1    1.5530        1    1.6223
--------------------------------------------------------------------------------
       3   Al    core        O     core         1    1.6905        1    1.6914
                                                1    1.7331        1    1.7393
                             O     shell        1    1.6922        1    1.7347
                                                1    1.7609        1    1.7844
--------------------------------------------------------------------------------
       4   Na    core        O     core         1    2.1127        1    2.1511
                                                1    2.3882        1    2.4679
                                                1    2.4878
                             O     shell        1    2.1771        1    2.1788
                                                1    2.4036        1    2.4334
                                                1    2.4766        1    2.4907
--------------------------------------------------------------------------------
       5   O     core        Na    core         1    2.1511
                             Al    core         1    1.6914
                             Si    core         1    1.5945
                             O     shell        1    0.0760        1    2.4244
--------------------------------------------------------------------------------
       6   O     core        Na    core         1    2.4878
                             Al    core         1    1.7393
                             Si    core         1    1.5898
                             O     shell        1    0.1282
--------------------------------------------------------------------------------
       7   O     core        Na    core         1    2.4679
                             Si    core         1    1.6095        1    1.6266
                             O     shell        1    0.1359
--------------------------------------------------------------------------------
       8   O     core        Na    core         1    2.3882
                             Al    core         1    1.6905
                             Si    core         1    1.5775
                             O     shell        1    0.1371        1    2.4355
--------------------------------------------------------------------------------
       9   O     core        Na    core         1    2.1127
                             Al    core         1    1.7331
                             Si    core         1    1.5644
                             O     shell        1    0.0984        1    2.4900
--------------------------------------------------------------------------------
      10   O     core        Si    core         1    1.6423        1    1.6525
                             O     shell        1    0.1073
--------------------------------------------------------------------------------
      11   O     shell       Na    core         1    2.1771
                             Al    core         1    1.7347
                             Si    core         1    1.5292
                             O     core         1    0.0760        1    2.4900
                             O     shell        1    2.3926        1    2.4566
--------------------------------------------------------------------------------
      12   O     shell       Na    core         1    2.4334
                             Al    core         1    1.7609
                             Si    core         1    1.4907
                             O     core         1    0.1282        1    2.4355
                             O     shell        1    2.3941
--------------------------------------------------------------------------------
      13   O     shell       Na    core         1    2.4907
                             Si    core         1    1.5530        1    1.5812
                             O     core         1    0.1359
                             O     shell        1    2.4566
--------------------------------------------------------------------------------
      14   O     shell       Na    core         1    2.4036
                             Al    core         1    1.6922
                             Si    core         1    1.4774
                             O     core         1    0.1371
                             O     shell        1    2.3941
--------------------------------------------------------------------------------
      15   O     shell       Na    core         1    2.1788
                             Al    core         1    1.7844
                             Si    core         1    1.4784
                             O     core         1    0.0984        1    2.4244
                             O     shell        1    2.3926        1    2.4666
--------------------------------------------------------------------------------
      16   O     shell       Na    core         1    2.4766
                             Si    core         1    1.6069        1    1.6223
                             O     core         1    0.1073
                             O     shell        1    2.4666
--------------------------------------------------------------------------------



********************************************************************************
*  General input information                                                   *
********************************************************************************

  Species output for all configurations : 

--------------------------------------------------------------------------------
  Species    Type    Atomic    Atomic    Charge       Radii (Angs)     Library
                     Number     Mass       (e)     Cova   Ionic  VDW   Symbol
--------------------------------------------------------------------------------
    Na       Core       11      22.99   1.000000   0.970  0.000  2.300          
    Al       Core       13      26.98   3.000000   1.350  0.000  2.050          
    Si       Core       14      28.09   4.000000   1.200  0.000  2.100          
    O        Core        8      16.00   0.869020   0.730  0.000  1.360          
    O        Shell       8       0.00  -2.869020   0.730  0.000  1.360          
--------------------------------------------------------------------------------


  Lattice summation method               =    Ewald          (3-D)
                                         =    Parry          (2-D)
                                         =    Saunders et al (1-D)
  Accuracy factor for lattice sums       =   12.000


  Time limit = Infinity

  Maximum range for interatomic potentials =    100000.000000 Angstroms

  C6 terms to be calculated in real and reciprocal space 

  General interatomic potentials :

--------------------------------------------------------------------------------
Atom  Types   Potential      Parameter       Value         Units   Cutoffs(Ang)
  1     2                                                            Min /  Max 
--------------------------------------------------------------------------------
Na   c O    s Buckingham    Buckingham A     1226.8400    eV        0.000 10.000
                            Buckingham rho  0.30650000    Ang       
                            Buckingham C     0.0000000    eV*Ang^6  
--------------------------------------------------------------------------------
Al   c O    s Buckingham    Buckingham A     1460.3000    eV        0.000 10.000
                            Buckingham rho  0.29912000    Ang       
                            Buckingham C     0.0000000    eV*Ang^6  
--------------------------------------------------------------------------------
Si   c O    s Buckingham    Buckingham A     1283.9070    eV        0.000 12.000
                            Buckingham rho  0.32052000    Ang       
                            Buckingham C     10.661580    eV*Ang^6  
--------------------------------------------------------------------------------
O    s O    s Buckingham    Buckingham A     22764.300    eV        0.000 12.000
                            Buckingham rho  0.14900000    Ang       
                            Buckingham C     27.879000    eV*Ang^6  
--------------------------------------------------------------------------------
O    c O    s Spring (c-s)  Spring k 2       74.920000    eV*Ang^-2 0.000  0.800
                            Spring k 4       0.0000000    eV*Ang^-4 
--------------------------------------------------------------------------------

  General Three-body potentials :

--------------------------------------------------------------------------------
  Atoms       Potential      Parameter       Value         Units   Cutoffs(Ang)
  1 / 2 / 3                                                          Min /  Max 
--------------------------------------------------------------------------------
Si    core    Harmonic      Three-body cnst  2.0972400    eV*rad^-2 0.000  1.900
O     shel                  Three-body angl  109.47000    degrees   0.000  1.900
O     shel                  Three-body k4    0.0000000    eV*rad^-4 0.000  3.500
                            Three-body k3    0.0000000    eV*rad^-3 
--------------------------------------------------------------------------------
Al    core    Harmonic      Three-body cnst  2.0972400    eV*rad^-2 0.000  1.900
O     shel                  Three-body angl  109.47000    degrees   0.000  1.900
O     shel                  Three-body k4    0.0000000    eV*rad^-4 0.000  3.500
                            Three-body k3    0.0000000    eV*rad^-3 
--------------------------------------------------------------------------------

********************************************************************************
*  Output for configuration   1                                                *
********************************************************************************


  Repeat calculation for  11 points

  Translation vector :

  x =     0.000000  y =     0.000000  z =     1.000000


################################################################################
#  Output for point     0                                                      #
################################################################################


  Components of energy : 

--------------------------------------------------------------------------------
  Interatomic potentials     =         109.56122625 eV    
  Three-body potentials      =           0.13828231 eV    
  Monopole - monopole (real) =         -91.76705573 eV    
  Monopole - monopole (recip)=        -358.91555867 eV    
  Monopole - monopole (total)=        -450.68261440 eV    
  Dispersion (real+recip)    =          -8.93508294 eV    
--------------------------------------------------------------------------------
  Total lattice energy       =        -349.91818878 eV    
--------------------------------------------------------------------------------
  Total lattice energy       =          -33761.7562 kJ/(mole unit cells)
--------------------------------------------------------------------------------


  Number of variables =       44

  Maximum number of calculations  =          1000
  Maximum Hessian update interval =            10
  Maximum step size               =  10.000000000
  Maximum parameter tolerance     =   0.000010000
  Maximum function  tolerance     =   0.000010000
  Maximum gradient  tolerance     =   0.001000000
  Maximum gradient  component     =   0.010000000

  Symmetry not applied to optimisation

  Newton-Raphson optimiser to be used

  BFGS hessian update to be used

  Lower half triangular hessian to be used

  Minimiser to switch to RFO
  When gradient norm is less than     0.100000

  Dumpfile to be written after every    2 cycles

  Start of bulk optimisation :

  Cycle:      0 Energy:      -349.918189  Gnorm:      0.000190  CPU:    0.011


  **** Optimisation achieved ****


  Final energy =    -349.91818878 eV
  Final Gnorm  =       0.00019022

  Components of energy : 

--------------------------------------------------------------------------------
  Interatomic potentials     =         109.56122625 eV    
  Three-body potentials      =           0.13828231 eV    
  Monopole - monopole (real) =         -91.76705573 eV    
  Monopole - monopole (recip)=        -358.91555867 eV    
  Monopole - monopole (total)=        -450.68261440 eV    
  Dispersion (real+recip)    =          -8.93508294 eV    
--------------------------------------------------------------------------------
  Total lattice energy       =        -349.91818878 eV    
--------------------------------------------------------------------------------
  Total lattice energy       =          -33761.7562 kJ/(mole unit cells)
--------------------------------------------------------------------------------

  Final fractional coordinates of atoms :

--------------------------------------------------------------------------------
   No.  Atomic        x           y          z          Radius
        Label       (Frac)      (Frac)     (Frac)       (Angs) 
--------------------------------------------------------------------------------
     1  Si    c     0.000000    0.468200    0.666666    0.000000
     2  Si    c     0.562283    0.553474    0.985986    0.000000
     3  Al    c     0.445925    0.991213    0.348165    0.000000
     4  Na    c     0.996987    0.272679    0.172946    0.000000
     5  O     c     0.442025    0.289142    0.194695    0.000000
     6  O     c     0.727571    0.131612    0.581260    0.000000
     7  O     c     0.900494    0.614677    0.895918    0.000000
     8  O     c     0.089785    0.698420    0.439177    0.000000
     9  O     c     0.574325    0.846687    0.110388    0.000000
    10  O     c     0.293304    0.427050    0.765705    0.000000
    11  O     s     0.451160    0.296281    0.182836    0.000000
    12  O     s     0.741396    0.160744    0.575279    0.000000
    13  O     s     0.874954    0.591869    0.883898    0.000000
    14  O     s     0.104617    0.690857    0.457113    0.000000
    15  O     s     0.569630    0.824747    0.110755    0.000000
    16  O     s     0.289597    0.442377    0.777587    0.000000
--------------------------------------------------------------------------------

  Final Cartesian lattice vectors (Angstroms) :

        4.914730    0.000000    0.000000
       -2.457365    4.256281    0.000000
        0.000000    0.000000    5.406570


  Final cell parameters and derivatives :

--------------------------------------------------------------------------------
       a            4.914730 Angstrom     dE/de1(xx)     0.000000 eV/strain
       b            4.914730 Angstrom     dE/de2(yy)     0.000000 eV/strain
       c            5.406570 Angstrom     dE/de3(zz)     0.000000 eV/strain
       alpha       90.000000 Degrees      dE/de4(yz)     0.000000 eV/strain
       beta        90.000000 Degrees      dE/de5(xz)     0.000000 eV/strain
       gamma      120.000000 Degrees      dE/de6(xy)     0.000000 eV/strain
--------------------------------------------------------------------------------

  Primitive cell volume =           113.097184 Angs**3

  Density of cell =      2.968096 g/cm**3

  Non-primitive cell volume =           113.097184 Angs**3


  Final internal derivatives :

--------------------------------------------------------------------------------
   No.  Atomic          a             b             c           Radius
        Label          (eV)          (eV)          (eV)        (eV/Angs)
--------------------------------------------------------------------------------
      1 Si    c       0.000000      0.000000      0.000000      0.000000
      2 Si    c       0.000346     -0.001002      0.001243      0.000000
      3 Al    c      -0.002940      0.002587     -0.000430      0.000000
      4 Na    c      -0.000024     -0.000025      0.000000      0.000000
      5 O     c       0.001510     -0.002721      0.000543      0.000000
      6 O     c       0.000013      0.000483      0.000896      0.000000
      7 O     c      -0.000559      0.000513      0.000099      0.000000
      8 O     c       0.000353      0.000599     -0.001583      0.000000
      9 O     c       0.000188      0.000815      0.001485      0.000000
     10 O     c      -0.000298     -0.000236      0.001261      0.000000
     11 O     s      -0.001070      0.001774      0.001106      0.000000
     12 O     s       0.000730     -0.000876     -0.000306      0.000000
     13 O     s       0.000360      0.000133     -0.001095      0.000000
     14 O     s       0.000092     -0.000592      0.001900      0.000000
     15 O     s       0.001293     -0.001813     -0.002888      0.000000
     16 O     s       0.000569      0.000100     -0.002602      0.000000
--------------------------------------------------------------------------------
  Maximum abs         0.002940      0.002721      0.002888      0.000000
--------------------------------------------------------------------------------


  Distance calculation :


  Cutoff for distances  =      2.500000 Angstroms

--------------------------------------------------------------------------------
  Asymmetric unit site  Full lattice sites    No.  Distance      No.  Distance
      No.   At.No.            At.No.                (Angs)             (Angs) 
--------------------------------------------------------------------------------
       1   Si    core        O     core         1    1.5775        1    1.5898
                                                1    1.6266        1    1.6423
                             O     shell        1    1.4774        1    1.4907
                                                1    1.5812        1    1.6069
--------------------------------------------------------------------------------
       2   Si    core        O     core         1    1.5644        1    1.5945
                                                1    1.6095        1    1.6525
                             O     shell        1    1.4784        1    1.5292
                                                1    1.5530        1    1.6223
--------------------------------------------------------------------------------
       3   Al    core        O     core         1    1.6905        1    1.6914
                                                1    1.7331        1    1.7393
                             O     shell        1    1.6922        1    1.7347
                                                1    1.7609        1    1.7844
--------------------------------------------------------------------------------
       4   Na    core        O     core         1    2.1127        1    2.1511
                                                1    2.3882        1    2.4679
                                                1    2.4878
                             O     shell        1    2.1771        1    2.1788
                                                1    2.4036        1    2.4334
                                                1    2.4766        1    2.4907
--------------------------------------------------------------------------------
       5   O     core        Na    core         1    2.1511
                             Al    core         1    1.6914
                             Si    core         1    1.5945
                             O     shell        1    0.0760        1    2.4244
--------------------------------------------------------------------------------
       6   O     core        Na    core         1    2.4878
                             Al    core         1    1.7393
                             Si    core         1    1.5898
                             O     shell        1    0.1282
--------------------------------------------------------------------------------
       7   O     core        Na    core         1    2.4679
                             Si    core         1    1.6095        1    1.6266
                             O     shell        1    0.1359
--------------------------------------------------------------------------------
       8   O     core        Na    core         1    2.3882
                             Al    core         1    1.6905
                             Si    core         1    1.5775
                             O     shell        1    0.1371        1    2.4355
--------------------------------------------------------------------------------
       9   O     core        Na    core         1    2.1127
                             Al    core         1    1.7331
                             Si    core         1    1.5644
                             O     shell        1    0.0984        1    2.4900
--------------------------------------------------------------------------------
      10   O     core        Si    core         1    1.6423        1    1.6525
                             O     shell        1    0.1073
--------------------------------------------------------------------------------
      11   O     shell       Na    core         1    2.1771
                             Al    core         1    1.7347
                             Si    core         1    1.5292
                             O     core         1    0.0760        1    2.4900
                             O     shell        1    2.3926        1    2.4566
--------------------------------------------------------------------------------
      12   O     shell       Na    core         1    2.4334
                             Al    core         1    1.7609
                             Si    core         1    1.4907
                             O     core         1    0.1282        1    2.4355
                             O     shell        1    2.3941
--------------------------------------------------------------------------------
      13   O     shell       Na    core         1    2.4907
                             Si    core         1    1.5530        1    1.5812
                             O     core         1    0.1359
                             O     shell        1    2.4566
--------------------------------------------------------------------------------
      14   O     shell       Na    core         1    2.4036
                             Al    core         1    1.6922
                             Si    core         1    1.4774
                             O     core         1    0.1371
                             O     shell        1    2.3941
--------------------------------------------------------------------------------
      15   O     shell       Na    core         1    2.1788
                             Al    core         1    1.7844
                             Si    core         1    1.4784
                             O     core         1    0.0984        1    2.4244
                             O     shell        1    2.3926        1    2.4666
--------------------------------------------------------------------------------
      16   O     shell       Na    core         1    2.4766
                             Si    core         1    1.6069        1    1.6223
                             O     core         1    0.1073
                             O     shell        1    2.4666
--------------------------------------------------------------------------------



  Time to end of optimisation =       0.0137 seconds


################################################################################
#  Output for point     1                                                      #
################################################################################


  Components of energy : 

--------------------------------------------------------------------------------
  Interatomic potentials     =         110.84455534 eV    
  Three-body potentials      =           0.13828231 eV    
  Monopole - monopole (real) =         -91.68982305 eV    
  Monopole - monopole (recip)=        -358.84312999 eV    
  Monopole - monopole (total)=        -450.53295304 eV    
  Dispersion (real+recip)    =          -8.93508294 eV    
--------------------------------------------------------------------------------
  Total lattice energy       =        -348.48519834 eV    
--------------------------------------------------------------------------------
  Total lattice energy       =          -33623.4946 kJ/(mole unit cells)
--------------------------------------------------------------------------------


  Number of variables =       44

  Maximum number of calculations  =          1000
  Maximum Hessian update interval =            10
  Maximum step size               =  10.000000000
  Maximum parameter tolerance     =   0.000010000
  Maximum function  tolerance     =   0.000010000
  Maximum gradient  tolerance     =   0.001000000
  Maximum gradient  component     =   0.010000000

  Symmetry not applied to optimisation

  Newton-Raphson optimiser to be used

  BFGS hessian update to be used

  Lower half triangular hessian to be used

  Minimiser to switch to RFO
  When gradient norm is less than     0.100000

  Dumpfile to be written after every    2 cycles

  Start of bulk optimisation :

  Cycle:      0 Energy:      -348.485198  Gnorm:      0.687658  CPU:    0.019
  ** Hessian calculated **
  Cycle:      1 Energy:      -349.369817  Gnorm:      0.276513  CPU:    0.026
  Cycle:      2 Energy:      -349.481771  Gnorm:      0.105449  CPU:    0.033
  Cycle:      3 Energy:      -349.507484  Gnorm:      0.056482  CPU:    0.041
  ** Hessian has required structure
  Cycle:      4 Energy:      -349.508345  Gnorm:      0.044667  CPU:    0.050
  ** Hessian has required structure
  Cycle:      5 Energy:      -349.509825  Gnorm:      0.058420  CPU:    0.057
  ** Hessian has required structure
  Cycle:      6 Energy:      -349.511149  Gnorm:      0.044830  CPU:    0.064
  ** Hessian has required structure
  Cycle:      7 Energy:      -349.511850  Gnorm:      0.034522  CPU:    0.071
  ** Hessian has required structure
  Cycle:      8 Energy:      -349.512242  Gnorm:      0.041449  CPU:    0.079
  ** Hessian has required structure
  Cycle:      9 Energy:      -349.513212  Gnorm:      0.039696  CPU:    0.086
  ** Hessian has required structure
  Cycle:     10 Energy:      -349.514630  Gnorm:      0.059180  CPU:    0.095
  ** Hessian has wrong structure
  ** Imaginary eigenvectors =   1
  Cycle:     11 Energy:      -349.520665  Gnorm:      0.059198  CPU:    0.124
  ** Hessian has wrong structure
  ** Imaginary eigenvectors =   1
  ** Hessian has wrong structure
  ** Imaginary eigenvectors =   1
  Cycle:     12 Energy:      -349.526182  Gnorm:      0.063096  CPU:    0.154
  ** Hessian has required structure
  ** Hessian has required structure
  Cycle:     13 Energy:      -349.555799  Gnorm:      0.092358  CPU:    0.167
  ** Hessian has required structure
  Cycle:     14 Energy:      -349.575008  Gnorm:      0.108584  CPU:    0.175
  ** Hessian has required structure
  Cycle:     15 Energy:      -349.602604  Gnorm:      0.094923  CPU:    0.184
  ** Hessian has required structure
  Cycle:     16 Energy:      -349.628054  Gnorm:      0.069789  CPU:    0.192
  ** Hessian has required structure
  Cycle:     17 Energy:      -349.632132  Gnorm:      0.022267  CPU:    0.201
  ** Hessian has required structure
  Cycle:     18 Energy:      -349.632948  Gnorm:      0.013314  CPU:    0.210
  ** Hessian has required structure
  Cycle:     19 Energy:      -349.633164  Gnorm:      0.004862  CPU:    0.217
  ** Hessian has required structure
  Cycle:     20 Energy:      -349.633195  Gnorm:      0.001448  CPU:    0.223
  ** Hessian has required structure


  **** Optimisation achieved ****


  Final energy =    -349.63319722 eV
  Final Gnorm  =       0.00036612

  Components of energy : 

--------------------------------------------------------------------------------
  Interatomic potentials     =         109.48194853 eV    
  Three-body potentials      =           0.10932865 eV    
  Monopole - monopole (real) =         -91.43743999 eV    
  Monopole - monopole (recip)=        -358.96784514 eV    
  Monopole - monopole (total)=        -450.40528513 eV    
  Dispersion (real+recip)    =          -8.81918928 eV    
--------------------------------------------------------------------------------
  Total lattice energy       =        -349.63319722 eV    
--------------------------------------------------------------------------------
  Total lattice energy       =          -33734.2589 kJ/(mole unit cells)
--------------------------------------------------------------------------------

  Final fractional coordinates of atoms :

--------------------------------------------------------------------------------
   No.  Atomic        x           y          z          Radius
        Label       (Frac)      (Frac)     (Frac)       (Angs) 
--------------------------------------------------------------------------------
     1  Si    c     0.000000    0.468200    0.666666    0.000000
     2  Si    c     0.532286    0.542278    0.974984    0.000000
     3  Al    c     0.479095    0.009216    0.327044    0.000000
     4  Na    c     0.986874    0.011105    0.272946    0.000000
     5  O     c     0.465187    0.332287    0.217185    0.000000
     6  O     c     0.742681    0.135185    0.563583    0.000000
     7  O     c     0.872121    0.612496    0.875114    0.000000
     8  O     c     0.137388    0.708773    0.443251    0.000000
     9  O     c     0.564441    0.867083    0.063516    0.000000
    10  O     c     0.255938    0.379606    0.774525    0.000000
    11  O     s     0.467417    0.330832    0.198938    0.000000
    12  O     s     0.755040    0.162463    0.556167    0.000000
    13  O     s     0.851047    0.590796    0.864589    0.000000
    14  O     s     0.143499    0.705031    0.458476    0.000000
    15  O     s     0.560151    0.842746    0.072932    0.000000
    16  O     s     0.260993    0.406068    0.785544    0.000000
--------------------------------------------------------------------------------

  Final Cartesian lattice vectors (Angstroms) :

        4.914730    0.000000    0.000000
       -2.457365    4.256281    0.000000
        0.000000    0.000000    5.406570


  Final cell parameters and derivatives :

--------------------------------------------------------------------------------
       a            4.914730 Angstrom     dE/de1(xx)     0.000000 eV/strain
       b            4.914730 Angstrom     dE/de2(yy)     0.000000 eV/strain
       c            5.406570 Angstrom     dE/de3(zz)     0.000000 eV/strain
       alpha       90.000000 Degrees      dE/de4(yz)     0.000000 eV/strain
       beta        90.000000 Degrees      dE/de5(xz)     0.000000 eV/strain
       gamma      120.000000 Degrees      dE/de6(xy)     0.000000 eV/strain
--------------------------------------------------------------------------------

  Primitive cell volume =           113.097184 Angs**3

  Density of cell =      2.968096 g/cm**3

  Non-primitive cell volume =           113.097184 Angs**3


  Final internal derivatives :

--------------------------------------------------------------------------------
   No.  Atomic          a             b             c           Radius
        Label          (eV)          (eV)          (eV)        (eV/Angs)
--------------------------------------------------------------------------------
      1 Si    c       0.000000      0.000000      0.000000      0.000000
      2 Si    c      -0.000882      0.000432      0.004249      0.000000
      3 Al    c      -0.001476      0.000907     -0.005652      0.000000
      4 Na    c       0.000518      0.000143      0.000000      0.000000
      5 O     c       0.001497     -0.002808     -0.002129      0.000000
      6 O     c       0.003075     -0.000629      0.004789      0.000000
      7 O     c      -0.002848      0.001380      0.004164      0.000000
      8 O     c      -0.000426     -0.000380      0.000790      0.000000
      9 O     c      -0.003469      0.003161      0.003875      0.000000
     10 O     c       0.000888     -0.000397     -0.000846      0.000000
     11 O     s      -0.001396      0.000035      0.002583      0.000000
     12 O     s       0.000247     -0.000984     -0.001969      0.000000
     13 O     s       0.003841     -0.000777     -0.005504      0.000000
     14 O     s       0.001054     -0.001917      0.001425      0.000000
     15 O     s       0.000457      0.002323     -0.002834      0.000000
     16 O     s      -0.002377      0.001951     -0.001307      0.000000
--------------------------------------------------------------------------------
  Maximum abs         0.003841      0.003161      0.005652      0.000000
--------------------------------------------------------------------------------


  Distance calculation :


  Cutoff for distances  =      2.500000 Angstroms

--------------------------------------------------------------------------------
  Asymmetric unit site  Full lattice sites    No.  Distance      No.  Distance
      No.   At.No.            At.No.                (Angs)             (Angs) 
--------------------------------------------------------------------------------
       1   Si    core        O     core         1    1.5857        1    1.5871
                                                1    1.6167        1    1.6308
                             O     shell        1    1.5017        1    1.5160
                                                1    1.5764        1    1.5948
--------------------------------------------------------------------------------
       2   Si    core        O     core         1    1.5963        1    1.5969
                                                1    1.6039        1    1.6198
                             O     shell        1    1.5092        1    1.5220
                                                1    1.5435        1    1.5792
--------------------------------------------------------------------------------
       3   Al    core        Na    core         1    2.4414
                             O     core         1    1.7015        1    1.7075
                                                2    1.7283
                             O     shell        1    1.7087        1    1.7305
                                                1    1.7440        1    1.7528
--------------------------------------------------------------------------------
       4   Na    core        Al    core         1    2.4414
                             O     core         1    2.0971        1    2.1503
                                                1    2.1684        1    2.2390
                             O     shell        1    2.1204        1    2.1253
                                                1    2.2404        1    2.2459
--------------------------------------------------------------------------------
       5   O     core        Na    core         1    2.0971
                             Al    core         1    1.7283
                             Si    core         1    1.5963
                             O     shell        1    0.0999        1    2.4391
--------------------------------------------------------------------------------
       6   O     core        Na    core         1    2.2390
                             Al    core         1    1.7015
                             Si    core         1    1.5871
                             O     core         1    2.4651
                             O     shell        1    0.1230
--------------------------------------------------------------------------------
       7   O     core        Si    core         1    1.6167        1    1.6198
                             O     shell        1    0.1196        1    2.4868
--------------------------------------------------------------------------------
       8   O     core        Na    core         1    2.1684
                             Al    core         1    1.7075
                             Si    core         1    1.5857
                             O     shell        1    0.0926        1    2.4632
--------------------------------------------------------------------------------
       9   O     core        Na    core         1    2.1503
                             Al    core         1    1.7283
                             Si    core         1    1.5969
                             O     shell        1    0.1217        1    2.4975
--------------------------------------------------------------------------------
      10   O     core        Si    core         1    1.6039        1    1.6308
                             O     core         1    2.4651
                             O     shell        1    0.1336        1    2.4425
--------------------------------------------------------------------------------
      11   O     shell       Na    core         1    2.1204
                             Al    core         1    1.7528
                             Si    core         1    1.5220
                             O     core         1    0.0999        1    2.4868
                             O     shell        1    2.4197        1    2.4589
--------------------------------------------------------------------------------
      12   O     shell       Na    core         1    2.2459
                             Al    core         1    1.7087
                             Si    core         1    1.5017
                             O     core         1    0.1230        1    2.4425
                                                1    2.4632
                             O     shell        1    2.4379        1    2.4855
--------------------------------------------------------------------------------
      13   O     shell       Si    core         1    1.5764        1    1.5792
                             O     core         1    0.1196
                             O     shell        1    2.4589
--------------------------------------------------------------------------------
      14   O     shell       Na    core         1    2.2404
                             Al    core         1    1.7305
                             Si    core         1    1.5160
                             O     core         1    0.0926
                             O     shell        1    2.4379
--------------------------------------------------------------------------------
      15   O     shell       Na    core         1    2.1253
                             Al    core         1    1.7440
                             Si    core         1    1.5092
                             O     core         1    0.1217        1    2.4391
                             O     shell        1    2.4197        1    2.4549
--------------------------------------------------------------------------------
      16   O     shell       Si    core         1    1.5435        1    1.5948
                             O     core         1    0.1336        1    2.4975
                             O     shell        1    2.4549        1    2.4855
--------------------------------------------------------------------------------



  Time to end of optimisation =       0.2322 seconds


################################################################################
#  Output for point     2                                                      #
################################################################################


  Components of energy : 

--------------------------------------------------------------------------------
  Interatomic potentials     =         110.42063380 eV    
  Three-body potentials      =           0.10932865 eV    
  Monopole - monopole (real) =         -91.76750439 eV    
  Monopole - monopole (recip)=        -358.94665576 eV    
  Monopole - monopole (total)=        -450.71416014 eV    
  Dispersion (real+recip)    =          -8.81918928 eV    
--------------------------------------------------------------------------------
  Total lattice energy       =        -349.00338697 eV    
--------------------------------------------------------------------------------
  Total lattice energy       =          -33673.4918 kJ/(mole unit cells)
--------------------------------------------------------------------------------


  Number of variables =       44

  Maximum number of calculations  =          1000
  Maximum Hessian update interval =            10
  Maximum step size               =  10.000000000
  Maximum parameter tolerance     =   0.000010000
  Maximum function  tolerance     =   0.000010000
  Maximum gradient  tolerance     =   0.001000000
  Maximum gradient  component     =   0.010000000

  Symmetry not applied to optimisation

  Newton-Raphson optimiser to be used

  BFGS hessian update to be used

  Lower half triangular hessian to be used

  Minimiser to switch to RFO
  When gradient norm is less than     0.100000

  Dumpfile to be written after every    2 cycles

  Start of bulk optimisation :

  Cycle:      0 Energy:      -349.003387  Gnorm:      0.683979  CPU:    0.237
  ** Hessian calculated **
  Cycle:      1 Energy:      -349.564327  Gnorm:      0.202276  CPU:    0.245
  ** Hessian calculated **
  Cycle:      2 Energy:      -349.630392  Gnorm:      0.015300  CPU:    0.255
  ** Hessian has required structure
  Cycle:      3 Energy:      -349.630456  Gnorm:      0.014370  CPU:    0.263
  ** Hessian has required structure
  Cycle:      4 Energy:      -349.630558  Gnorm:      0.010446  CPU:    0.269
  ** Hessian has required structure
  Cycle:      5 Energy:      -349.630586  Gnorm:      0.007230  CPU:    0.276
  ** Hessian has required structure
  Cycle:      6 Energy:      -349.630611  Gnorm:      0.006697  CPU:    0.284
  ** Hessian has required structure
  Cycle:      7 Energy:      -349.630633  Gnorm:      0.006492  CPU:    0.292
  ** Hessian has required structure
  Cycle:      8 Energy:      -349.630662  Gnorm:      0.006095  CPU:    0.298
  ** Hessian has required structure
  Cycle:      9 Energy:      -349.630674  Gnorm:      0.004783  CPU:    0.305
  ** Hessian has required structure
  Cycle:     10 Energy:      -349.630693  Gnorm:      0.006065  CPU:    0.312
  ** Hessian has required structure
  Cycle:     11 Energy:      -349.630710  Gnorm:      0.005969  CPU:    0.319
  ** Hessian has required structure
  Cycle:     12 Energy:      -349.630856  Gnorm:      0.000093  CPU:    0.328
  ** Hessian has required structure
  Cycle:     13 Energy:      -349.630856  Gnorm:      0.000093  CPU:    0.334
  ** Hessian has required structure


  **** Optimisation achieved ****


  Final energy =    -349.63085565 eV
  Final Gnorm  =       0.00000001

  Components of energy : 

--------------------------------------------------------------------------------
  Interatomic potentials     =         109.50044644 eV    
  Three-body potentials      =           0.10885947 eV    
  Monopole - monopole (real) =         -91.45686530 eV    
  Monopole - monopole (recip)=        -358.96605123 eV    
  Monopole - monopole (total)=        -450.42291653 eV    
  Dispersion (real+recip)    =          -8.81724504 eV    
--------------------------------------------------------------------------------
  Total lattice energy       =        -349.63085565 eV    
--------------------------------------------------------------------------------
  Total lattice energy       =          -33734.0330 kJ/(mole unit cells)
--------------------------------------------------------------------------------

  Final fractional coordinates of atoms :

--------------------------------------------------------------------------------
   No.  Atomic        x           y          z          Radius
        Label       (Frac)      (Frac)     (Frac)       (Angs) 
--------------------------------------------------------------------------------
     1  Si    c     0.000000    0.468200    0.666666    0.000000
     2  Si    c     0.542232    0.542253    0.976520    0.000000
     3  Al    c     0.480322    0.000828    0.315003    0.000000
     4  Na    c     0.986622    0.999160    0.372946    0.000000
     5  O     c     0.438287    0.300713    0.199067    0.000000
     6  O     c     0.706528    0.143352    0.579141    0.000000
     7  O     c     0.886202    0.631367    0.866612    0.000000
     8  O     c     0.143147    0.676754    0.423821    0.000000
     9  O     c     0.620168    0.875649    0.079901    0.000000
    10  O     c     0.269774    0.399040    0.767907    0.000000
    11  O     s     0.448387    0.304672    0.183876    0.000000
    12  O     s     0.726753    0.167638    0.569600    0.000000
    13  O     s     0.864951    0.604830    0.855783    0.000000
    14  O     s     0.146766    0.678384    0.442280    0.000000
    15  O     s     0.604713    0.848206    0.087246    0.000000
    16  O     s     0.270264    0.420427    0.778190    0.000000
--------------------------------------------------------------------------------

  Final Cartesian lattice vectors (Angstroms) :

        4.914730    0.000000    0.000000
       -2.457365    4.256281    0.000000
        0.000000    0.000000    5.406570


  Final cell parameters and derivatives :

--------------------------------------------------------------------------------
       a            4.914730 Angstrom     dE/de1(xx)     0.000000 eV/strain
       b            4.914730 Angstrom     dE/de2(yy)     0.000000 eV/strain
       c            5.406570 Angstrom     dE/de3(zz)     0.000000 eV/strain
       alpha       90.000000 Degrees      dE/de4(yz)     0.000000 eV/strain
       beta        90.000000 Degrees      dE/de5(xz)     0.000000 eV/strain
       gamma      120.000000 Degrees      dE/de6(xy)     0.000000 eV/strain
--------------------------------------------------------------------------------

  Primitive cell volume =           113.097184 Angs**3

  Density of cell =      2.968096 g/cm**3

  Non-primitive cell volume =           113.097184 Angs**3


  Final internal derivatives :

--------------------------------------------------------------------------------
   No.  Atomic          a             b             c           Radius
        Label          (eV)          (eV)          (eV)        (eV/Angs)
--------------------------------------------------------------------------------
      1 Si    c       0.000000      0.000000      0.000000      0.000000
      2 Si    c      -0.000000      0.000000      0.000000      0.000000
      3 Al    c      -0.000000      0.000000      0.000000      0.000000
      4 Na    c      -0.000000      0.000000      0.000000      0.000000
      5 O     c      -0.000000     -0.000000     -0.000000      0.000000
      6 O     c       0.000000     -0.000000     -0.000000      0.000000
      7 O     c       0.000000     -0.000000     -0.000000      0.000000
      8 O     c      -0.000000      0.000000      0.000000      0.000000
      9 O     c       0.000000     -0.000000      0.000000      0.000000
     10 O     c      -0.000000      0.000000      0.000000      0.000000
     11 O     s       0.000000      0.000000     -0.000000      0.000000
     12 O     s       0.000000      0.000000      0.000000      0.000000
     13 O     s      -0.000000     -0.000000      0.000000      0.000000
     14 O     s       0.000000     -0.000000      0.000000      0.000000
     15 O     s      -0.000000     -0.000000     -0.000000      0.000000
     16 O     s       0.000000      0.000000     -0.000000      0.000000
--------------------------------------------------------------------------------
  Maximum abs         0.000000      0.000000      0.000000      0.000000
--------------------------------------------------------------------------------


  Distance calculation :


  Cutoff for distances  =      2.500000 Angstroms

--------------------------------------------------------------------------------
  Asymmetric unit site  Full lattice sites    No.  Distance      No.  Distance
      No.   At.No.            At.No.                (Angs)             (Angs) 
--------------------------------------------------------------------------------
       1   Si    core        O     core         1    1.5963        1    1.5970
                                                1    1.6041        1    1.6198
                             O     shell        1    1.5090        1    1.5212
                                                1    1.5436        1    1.5795
--------------------------------------------------------------------------------
       2   Si    core        O     core         1    1.5848        1    1.5863
                                                1    1.6181        1    1.6317
                             O     shell        1    1.5007        1    1.5147
                                                1    1.5794        1    1.5964
--------------------------------------------------------------------------------
       3   Al    core        Na    core         1    2.4425
                             O     core         1    1.6998        1    1.7066
                                                1    1.7284        1    1.7291
                             O     shell        1    1.7062        1    1.7296
                                                1    1.7438        1    1.7534
--------------------------------------------------------------------------------
       4   Na    core        Al    core         1    2.4425
                             O     core         1    2.0969        1    2.1484
                                                1    2.1721        1    2.2426
                             O     shell        1    2.1181        1    2.1225
                                                1    2.2455        1    2.2510
--------------------------------------------------------------------------------
       5   O     core        Na    core         1    2.1721
                             Al    core         1    1.7066
                             Si    core         1    1.5848
                             O     shell        1    0.0929        1    2.4645
--------------------------------------------------------------------------------
       6   O     core        Na    core         1    2.1484
                             Al    core         1    1.7284
                             Si    core         1    1.5970
                             O     shell        1    0.1222        1    2.4943
--------------------------------------------------------------------------------
       7   O     core        Si    core         1    1.6041        1    1.6317
                             O     core         1    2.4598
                             O     shell        1    0.1331        1    2.4386
--------------------------------------------------------------------------------
       8   O     core        Na    core         1    2.0969
                             Al    core         1    1.7291
                             Si    core         1    1.5963
                             O     shell        1    0.1010        1    2.4392
--------------------------------------------------------------------------------
       9   O     core        Na    core         1    2.2426
                             Al    core         1    1.6998
                             Si    core         1    1.5863
                             O     core         1    2.4598
                             O     shell        1    0.1237
--------------------------------------------------------------------------------
      10   O     core        Si    core         1    1.6181        1    1.6198
                             O     shell        1    0.1179        1    2.4859
--------------------------------------------------------------------------------
      11   O     shell       Na    core         1    2.2455
                             Al    core         1    1.7296
                             Si    core         1    1.5147
                             O     core         1    0.0929
                             O     shell        1    2.4386
--------------------------------------------------------------------------------
      12   O     shell       Na    core         1    2.1225
                             Al    core         1    1.7438
                             Si    core         1    1.5090
                             O     core         1    0.1222        1    2.4392
                             O     shell        1    2.4196        1    2.4521
--------------------------------------------------------------------------------
      13   O     shell       Si    core         1    1.5436        1    1.5964
                             O     core         1    0.1331        1    2.4943
                             O     shell        1    2.4521        1    2.4824
--------------------------------------------------------------------------------
      14   O     shell       Na    core         1    2.1181
                             Al    core         1    1.7534
                             Si    core         1    1.5212
                             O     core         1    0.1010        1    2.4859
                             O     shell        1    2.4196        1    2.4583
--------------------------------------------------------------------------------
      15   O     shell       Na    core         1    2.2510
                             Al    core         1    1.7062
                             Si    core         1    1.5007
                             O     core         1    0.1237        1    2.4386
                                                1    2.4645
                             O     shell        1    2.4386        1    2.4824
--------------------------------------------------------------------------------
      16   O     shell       Si    core         2    1.5795
                             O     core         1    0.1179
                             O     shell        1    2.4583
--------------------------------------------------------------------------------



  Time to end of optimisation =       0.3490 seconds


################################################################################
#  Output for point     3                                                      #
################################################################################


  Components of energy : 

--------------------------------------------------------------------------------
  Interatomic potentials     =         110.15543538 eV    
  Three-body potentials      =           0.10885947 eV    
  Monopole - monopole (real) =         -91.61780660 eV    
  Monopole - monopole (recip)=        -358.90927164 eV    
  Monopole - monopole (total)=        -450.52707824 eV    
  Dispersion (real+recip)    =          -8.81724504 eV    
--------------------------------------------------------------------------------
  Total lattice energy       =        -349.08002842 eV    
--------------------------------------------------------------------------------
  Total lattice energy       =          -33680.8866 kJ/(mole unit cells)
--------------------------------------------------------------------------------


  Number of variables =       44

  Maximum number of calculations  =          1000
  Maximum Hessian update interval =            10
  Maximum step size               =  10.000000000
  Maximum parameter tolerance     =   0.000010000
  Maximum function  tolerance     =   0.000010000
  Maximum gradient  tolerance     =   0.001000000
  Maximum gradient  component     =   0.010000000

  Symmetry not applied to optimisation

  Newton-Raphson optimiser to be used

  BFGS hessian update to be used

  Lower half triangular hessian to be used

  Minimiser to switch to RFO
  When gradient norm is less than     0.100000

  Dumpfile to be written after every    2 cycles

  Start of bulk optimisation :

  Cycle:      0 Energy:      -349.080028  Gnorm:      0.730829  CPU:    0.353
  ** Hessian calculated **
  Cycle:      1 Energy:      -349.472309  Gnorm:      0.103040  CPU:    0.361
  Cycle:      2 Energy:      -349.483207  Gnorm:      0.042488  CPU:    0.368
  ** Hessian has wrong structure
  ** Imaginary eigenvectors =   1
  Cycle:      3 Energy:      -349.483527  Gnorm:      0.026941  CPU:    0.391
  ** Hessian has wrong structure
  ** Imaginary eigenvectors =   1
  Cycle:      4 Energy:      -349.483384  Gnorm:      0.024935  CPU:    0.420
  ** Hessian has required structure
  Cycle:      5 Energy:      -349.490368  Gnorm:      0.019644  CPU:    0.429
  ** Hessian has required structure
  Cycle:      6 Energy:      -349.492011  Gnorm:      0.004202  CPU:    0.438
  ** Hessian has required structure
  Cycle:      7 Energy:      -349.492357  Gnorm:      0.003083  CPU:    0.448
  ** Hessian has required structure
  Cycle:      8 Energy:      -349.492369  Gnorm:      0.000473  CPU:    0.459
  ** Hessian has required structure


  **** Optimisation achieved ****


  Final energy =    -349.49236940 eV
  Final Gnorm  =       0.00008473

  Components of energy : 

--------------------------------------------------------------------------------
  Interatomic potentials     =         110.65388857 eV    
  Three-body potentials      =           0.13606481 eV    
  Monopole - monopole (real) =         -92.40330745 eV    
  Monopole - monopole (recip)=        -358.92930922 eV    
  Monopole - monopole (total)=        -451.33261667 eV    
  Dispersion (real+recip)    =          -8.94970610 eV    
--------------------------------------------------------------------------------
  Total lattice energy       =        -349.49236940 eV    
--------------------------------------------------------------------------------
  Total lattice energy       =          -33720.6712 kJ/(mole unit cells)
--------------------------------------------------------------------------------

  Final fractional coordinates of atoms :

--------------------------------------------------------------------------------
   No.  Atomic        x           y          z          Radius
        Label       (Frac)      (Frac)     (Frac)       (Angs) 
--------------------------------------------------------------------------------
     1  Si    c     0.000000    0.468200    0.666666    0.000000
     2  Si    c     0.554186    0.534605    0.989839    0.000000
     3  Al    c     0.495242    0.982939    0.315908    0.000000
     4  Na    c     0.037877    0.016147    0.472946    0.000000
     5  O     c     0.435066    0.259602    0.183244    0.000000
     6  O     c     0.695150    0.141386    0.591907    0.000000
     7  O     c     0.887772    0.647117    0.847484    0.000000
     8  O     c     0.149225    0.652231    0.413651    0.000000
     9  O     c     0.675724    0.862168    0.118844    0.000000
    10  O     c     0.273361    0.419971    0.787088    0.000000
    11  O     s     0.450847    0.270619    0.172235    0.000000
    12  O     s     0.717675    0.164339    0.581970    0.000000
    13  O     s     0.868841    0.616135    0.838877    0.000000
    14  O     s     0.152570    0.655717    0.435149    0.000000
    15  O     s     0.649136    0.833839    0.120579    0.000000
    16  O     s     0.272317    0.434863    0.793101    0.000000
--------------------------------------------------------------------------------

  Final Cartesian lattice vectors (Angstroms) :

        4.914730    0.000000    0.000000
       -2.457365    4.256281    0.000000
        0.000000    0.000000    5.406570


  Final cell parameters and derivatives :

--------------------------------------------------------------------------------
       a            4.914730 Angstrom     dE/de1(xx)     0.000000 eV/strain
       b            4.914730 Angstrom     dE/de2(yy)     0.000000 eV/strain
       c            5.406570 Angstrom     dE/de3(zz)     0.000000 eV/strain
       alpha       90.000000 Degrees      dE/de4(yz)     0.000000 eV/strain
       beta        90.000000 Degrees      dE/de5(xz)     0.000000 eV/strain
       gamma      120.000000 Degrees      dE/de6(xy)     0.000000 eV/strain
--------------------------------------------------------------------------------

  Primitive cell volume =           113.097184 Angs**3

  Density of cell =      2.968096 g/cm**3

  Non-primitive cell volume =           113.097184 Angs**3


  Final internal derivatives :

--------------------------------------------------------------------------------
   No.  Atomic          a             b             c           Radius
        Label          (eV)          (eV)          (eV)        (eV/Angs)
--------------------------------------------------------------------------------
      1 Si    c       0.000000      0.000000      0.000000      0.000000
      2 Si    c      -0.000256     -0.000356     -0.000470      0.000000
      3 Al    c      -0.000539      0.000906     -0.000480      0.000000
      4 Na    c       0.000116     -0.000037      0.000000      0.000000
      5 O     c       0.000086     -0.000239      0.000769      0.000000
      6 O     c       0.000351     -0.001030     -0.000321      0.000000
      7 O     c      -0.000256      0.000146     -0.000274      0.000000
      8 O     c       0.000469     -0.000795      0.000356      0.000000
      9 O     c       0.000217      0.000674     -0.000081      0.000000
     10 O     c       0.000627     -0.000342     -0.000815      0.000000
     11 O     s       0.000020     -0.000242     -0.000367      0.000000
     12 O     s      -0.000259      0.000338      0.000015      0.000000
     13 O     s       0.000897     -0.000152      0.000552      0.000000
     14 O     s      -0.001226      0.001149     -0.001049      0.000000
     15 O     s       0.000128     -0.000533      0.000825      0.000000
     16 O     s      -0.000544     -0.000224      0.000776      0.000000
--------------------------------------------------------------------------------
  Maximum abs         0.001226      0.001149      0.001049      0.000000
--------------------------------------------------------------------------------


  Distance calculation :


  Cutoff for distances  =      2.500000 Angstroms

--------------------------------------------------------------------------------
  Asymmetric unit site  Full lattice sites    No.  Distance      No.  Distance
      No.   At.No.            At.No.                (Angs)             (Angs) 
--------------------------------------------------------------------------------
       1   Si    core        O     core         1    1.5869        1    1.6012
                                                1    1.6067        1    1.6135
                             O     shell        1    1.5099        1    1.5124
                                                1    1.5143        1    1.5826
--------------------------------------------------------------------------------
       2   Si    core        O     core         1    1.5721        1    1.5727
                                                1    1.6268        1    1.6369
                             O     shell        1    1.4812        1    1.5016
                                                1    1.6120        1    1.6161
--------------------------------------------------------------------------------
       3   Al    core        Na    core         1    2.4834
                             O     core         1    1.6736        1    1.6891
                                                1    1.7416        1    1.7461
                             O     shell        1    1.6669        1    1.7200
                                                1    1.7563        1    1.7691
--------------------------------------------------------------------------------
       4   Na    core        Al    core         1    2.4834
                             O     core         1    2.1401        1    2.1602
                                                1    2.3151        1    2.4220
                                                1    2.4615
                             O     shell        1    2.1204        1    2.1215
                                                1    2.4059        1    2.4875
--------------------------------------------------------------------------------
       5   O     core        Na    core         1    2.3151
                             Al    core         1    1.6891
                             Si    core         1    1.5721
                             O     shell        1    0.0911        1    2.4935
--------------------------------------------------------------------------------
       6   O     core        Na    core         1    2.1602
                             Al    core         1    1.7416
                             Si    core         1    1.6067
                             O     shell        1    0.1240        1    2.4421
--------------------------------------------------------------------------------
       7   O     core        Si    core         1    1.5869        1    1.6369
                             O     core         1    2.3360
                             O     shell        1    0.1409        1    2.3397
--------------------------------------------------------------------------------
       8   O     core        Na    core         1    2.1401
                             Al    core         1    1.7461
                             Si    core         1    1.6012
                             O     shell        1    0.1174        1    2.4476
--------------------------------------------------------------------------------
       9   O     core        Na    core         1    2.4615
                             Al    core         1    1.6736
                             Si    core         1    1.5727
                             O     core         1    2.3360
                             O     shell        1    0.1355        1    2.4087
--------------------------------------------------------------------------------
      10   O     core        Na    core         1    2.4220
                             Si    core         1    1.6135        1    1.6268
                             O     shell        1    0.0826        1    2.4502
--------------------------------------------------------------------------------
      11   O     shell       Na    core         1    2.4059
                             Al    core         1    1.7200
                             Si    core         1    1.5016
                             O     core         1    0.0911
                             O     shell        1    2.4479
--------------------------------------------------------------------------------
      12   O     shell       Na    core         1    2.1215
                             Al    core         1    1.7563
                             Si    core         1    1.5143
                             O     core         1    0.1240        1    2.4476
                             O     shell        1    2.4004        1    2.4226
--------------------------------------------------------------------------------
      13   O     shell       Si    core         1    1.5099        1    1.6120
                             O     core         1    0.1409        1    2.4087
                                                1    2.4421
                             O     shell        1    2.4004        1    2.4054
--------------------------------------------------------------------------------
      14   O     shell       Na    core         1    2.1204
                             Al    core         1    1.7691
                             Si    core         1    1.5124
                             O     core         1    0.1174        1    2.4502
                             O     shell        1    2.4226        1    2.4308
--------------------------------------------------------------------------------
      15   O     shell       Al    core         1    1.6669
                             Si    core         1    1.4812
                             O     core         1    0.1355        1    2.3397
                                                1    2.4935
                             O     shell        1    2.4054        1    2.4479
--------------------------------------------------------------------------------
      16   O     shell       Na    core         1    2.4875
                             Si    core         1    1.5826        1    1.6161
                             O     core         1    0.0826
                             O     shell        1    2.4308
--------------------------------------------------------------------------------



  Time to end of optimisation =       0.4684 seconds


################################################################################
#  Output for point     4                                                      #
################################################################################


  Components of energy : 

--------------------------------------------------------------------------------
  Interatomic potentials     =         111.40459492 eV    
  Three-body potentials      =           0.13606481 eV    
  Monopole - monopole (real) =         -92.60644506 eV    
  Monopole - monopole (recip)=        -358.86551011 eV    
  Monopole - monopole (total)=        -451.47195517 eV    
  Dispersion (real+recip)    =          -8.94970610 eV    
--------------------------------------------------------------------------------
  Total lattice energy       =        -348.88100154 eV    
--------------------------------------------------------------------------------
  Total lattice energy       =          -33661.6835 kJ/(mole unit cells)
--------------------------------------------------------------------------------


  Number of variables =       44

  Maximum number of calculations  =          1000
  Maximum Hessian update interval =            10
  Maximum step size               =  10.000000000
  Maximum parameter tolerance     =   0.000010000
  Maximum function  tolerance     =   0.000010000
  Maximum gradient  tolerance     =   0.001000000
  Maximum gradient  component     =   0.010000000

  Symmetry not applied to optimisation

  Newton-Raphson optimiser to be used

  BFGS hessian update to be used

  Lower half triangular hessian to be used

  Minimiser to switch to RFO
  When gradient norm is less than     0.100000

  Dumpfile to be written after every    2 cycles

  Start of bulk optimisation :

  Cycle:      0 Energy:      -348.881002  Gnorm:      0.625261  CPU:    0.473
  ** Hessian calculated **
  Cycle:      1 Energy:      -349.173201  Gnorm:      0.105896  CPU:    0.480
  ** Hessian calculated **
  Cycle:      2 Energy:      -349.211404  Gnorm:      0.061896  CPU:    0.491
  ** Hessian has required structure
  Cycle:      3 Energy:      -349.212749  Gnorm:      0.055610  CPU:    0.501
  ** Hessian has required structure
  Cycle:      4 Energy:      -349.215491  Gnorm:      0.058965  CPU:    0.509
  ** Hessian has required structure
  Cycle:      5 Energy:      -349.217861  Gnorm:      0.077987  CPU:    0.516
  ** Hessian has required structure
  Cycle:      6 Energy:      -349.220133  Gnorm:      0.053958  CPU:    0.525
  ** Hessian has required structure
  Cycle:      7 Energy:      -349.221225  Gnorm:      0.050976  CPU:    0.533
  ** Hessian has required structure
  Cycle:      8 Energy:      -349.222172  Gnorm:      0.052460  CPU:    0.541
  ** Hessian has required structure
  Cycle:      9 Energy:      -349.223076  Gnorm:      0.061729  CPU:    0.548
  ** Hessian has required structure
  Cycle:     10 Energy:      -349.224283  Gnorm:      0.058878  CPU:    0.554
  ** Hessian has required structure
  Cycle:     11 Energy:      -349.224763  Gnorm:      0.047757  CPU:    0.561
  ** Hessian has required structure
  Cycle:     12 Energy:      -349.252295  Gnorm:      0.091356  CPU:    0.575
  ** Hessian has required structure
  Cycle:     13 Energy:      -349.264701  Gnorm:      0.161344  CPU:    0.582
  ** Hessian has required structure
  Cycle:     14 Energy:      -349.286338  Gnorm:      0.228455  CPU:    0.591
  ** Hessian has required structure
  Cycle:     15 Energy:      -349.370398  Gnorm:      0.281681  CPU:    0.599
  ** Hessian has required structure
  Cycle:     16 Energy:      -349.434097  Gnorm:      0.170773  CPU:    0.608
  ** Hessian has required structure
  Cycle:     17 Energy:      -349.472508  Gnorm:      0.108411  CPU:    0.619
  ** Hessian has required structure
  Cycle:     18 Energy:      -349.480698  Gnorm:      0.076612  CPU:    0.627
  ** Hessian has required structure
  Cycle:     19 Energy:      -349.488372  Gnorm:      0.052036  CPU:    0.636
  ** Hessian has required structure
  Cycle:     20 Energy:      -349.491968  Gnorm:      0.032953  CPU:    0.645
  ** Hessian has required structure
  Cycle:     21 Energy:      -349.493799  Gnorm:      0.029292  CPU:    0.654
  ** Hessian has required structure
  Cycle:     22 Energy:      -349.496289  Gnorm:      0.005795  CPU:    0.665
  ** Hessian has required structure
  Cycle:     23 Energy:      -349.496359  Gnorm:      0.000903  CPU:    0.673
  ** Hessian has required structure


  **** Optimisation achieved ****


  Final energy =    -349.49636552 eV
  Final Gnorm  =       0.00021453

  Components of energy : 

--------------------------------------------------------------------------------
  Interatomic potentials     =         113.06567531 eV    
  Three-body potentials      =           0.10483104 eV    
  Monopole - monopole (real) =         -94.51845820 eV    
  Monopole - monopole (recip)=        -358.82155041 eV    
  Monopole - monopole (total)=        -453.34000861 eV    
  Dispersion (real+recip)    =          -9.32686327 eV    
--------------------------------------------------------------------------------
  Total lattice energy       =        -349.49636552 eV    
--------------------------------------------------------------------------------
  Total lattice energy       =          -33721.0567 kJ/(mole unit cells)
--------------------------------------------------------------------------------

  Final fractional coordinates of atoms :

--------------------------------------------------------------------------------
   No.  Atomic        x           y          z          Radius
        Label       (Frac)      (Frac)     (Frac)       (Angs) 
--------------------------------------------------------------------------------
     1  Si    c     0.000000    0.468200    0.666666    0.000000
     2  Si    c     0.546102    0.480509    0.999887    0.000000
     3  Al    c     0.554545    0.942500    0.310393    0.000000
     4  Na    c     0.217892    0.102578    0.572946    0.000000
     5  O     c     0.465802    0.146414    0.099454    0.000000
     6  O     c     0.764159    0.127717    0.568332    0.000000
[...]
                             Si    core         1    1.4278
                             O     core         1    0.1678        1    2.4554
                             O     shell        1    2.4268        1    2.4417
--------------------------------------------------------------------------------
      13   O     shell       Na    core         1    2.3424
                             Si    core         1    1.6141        1    1.6445
                             O     core         1    0.0838
                             O     shell        1    2.4902
--------------------------------------------------------------------------------
      14   O     shell       Al    core         1    1.7546
                             Si    core         1    1.4952
                             O     core         1    0.1036
                             O     shell        1    2.4268
--------------------------------------------------------------------------------
      15   O     shell       Na    core         1    2.3064
                             Al    core         1    1.7374
                             Si    core         1    1.4785
                             O     core         1    0.1239        1    2.4283
                                                1    2.4339
                             O     shell        1    2.3481        1    2.3980
--------------------------------------------------------------------------------
      16   O     shell       Si    core         1    1.5300        1    1.5869
                             O     core         1    0.1446        1    2.4235
                                                1    2.4955
                             O     shell        1    2.3481        1    2.4417
--------------------------------------------------------------------------------



  Time to end of optimisation =       1.2642 seconds


################################################################################
#  Output for point    10                                                      #
################################################################################


  Components of energy : 

--------------------------------------------------------------------------------
  Interatomic potentials     =         113.33462317 eV    
  Three-body potentials      =           0.10019137 eV    
  Monopole - monopole (real) =         -94.55649169 eV    
  Monopole - monopole (recip)=        -358.81101711 eV    
  Monopole - monopole (total)=        -453.36750880 eV    
  Dispersion (real+recip)    =          -9.35181345 eV    
--------------------------------------------------------------------------------
  Total lattice energy       =        -349.28450771 eV    
--------------------------------------------------------------------------------
  Total lattice energy       =          -33700.6157 kJ/(mole unit cells)
--------------------------------------------------------------------------------


  Number of variables =       44

  Maximum number of calculations  =          1000
  Maximum Hessian update interval =            10
  Maximum step size               =  10.000000000
  Maximum parameter tolerance     =   0.000010000
  Maximum function  tolerance     =   0.000010000
  Maximum gradient  tolerance     =   0.001000000
  Maximum gradient  component     =   0.010000000

  Symmetry not applied to optimisation

  Newton-Raphson optimiser to be used

  BFGS hessian update to be used

  Lower half triangular hessian to be used

  Minimiser to switch to RFO
  When gradient norm is less than     0.100000

  Dumpfile to be written after every    2 cycles

  Start of bulk optimisation :

  Cycle:      0 Energy:      -349.284508  Gnorm:      0.585714  CPU:    1.269
  ** Hessian calculated **
  Cycle:      1 Energy:      -349.500313  Gnorm:      0.333838  CPU:    1.275
  Cycle:      2 Energy:      -349.544151  Gnorm:      0.170451  CPU:    1.282
  Cycle:      3 Energy:      -349.554943  Gnorm:      0.123764  CPU:    1.288
  Cycle:      4 Energy:      -349.561071  Gnorm:      0.097970  CPU:    1.296
  ** Hessian has required structure
  Cycle:      5 Energy:      -349.565359  Gnorm:      0.124042  CPU:    1.304
  ** Hessian has required structure
  Cycle:      6 Energy:      -349.573068  Gnorm:      0.120389  CPU:    1.312
  ** Hessian has required structure
  Cycle:      7 Energy:      -349.577989  Gnorm:      0.098579  CPU:    1.319
  ** Hessian has required structure
  Cycle:      8 Energy:      -349.580739  Gnorm:      0.124990  CPU:    1.325
  ** Hessian has required structure
  Cycle:      9 Energy:      -349.588400  Gnorm:      0.083669  CPU:    1.333
  ** Hessian has required structure
  Cycle:     10 Energy:      -349.589789  Gnorm:      0.089453  CPU:    1.340
  ** Hessian has required structure
  Cycle:     11 Energy:      -349.621949  Gnorm:      0.069632  CPU:    1.354
  ** Hessian has required structure
  Cycle:     12 Energy:      -349.650780  Gnorm:      0.072718  CPU:    1.363
  ** Hessian has required structure
  Cycle:     13 Energy:      -349.676279  Gnorm:      0.127247  CPU:    1.372
  ** Hessian has required structure
  Cycle:     14 Energy:      -349.691390  Gnorm:      0.132109  CPU:    1.379
  ** Hessian has required structure
  Cycle:     15 Energy:      -349.698669  Gnorm:      0.160247  CPU:    1.385
  ** Hessian has required structure
  Cycle:     16 Energy:      -349.702694  Gnorm:      0.131117  CPU:    1.392
  ** Hessian has required structure
  Cycle:     17 Energy:      -349.717080  Gnorm:      0.201378  CPU:    1.401
  ** Hessian has required structure
  Cycle:     18 Energy:      -349.757405  Gnorm:      0.276918  CPU:    1.413
  ** Hessian has required structure
  Cycle:     19 Energy:      -349.840137  Gnorm:      0.186061  CPU:    1.423
  ** Hessian has required structure
  Cycle:     20 Energy:      -349.878075  Gnorm:      0.127381  CPU:    1.433
  ** Hessian has required structure
  Cycle:     21 Energy:      -349.914038  Gnorm:      0.055640  CPU:    1.443
  ** Hessian has required structure
  Cycle:     22 Energy:      -349.917817  Gnorm:      0.006991  CPU:    1.455
  ** Hessian has required structure
  Cycle:     23 Energy:      -349.918181  Gnorm:      0.003352  CPU:    1.462
  ** Hessian has required structure


  **** Optimisation achieved ****


  Final energy =    -349.91818871 eV
  Final Gnorm  =       0.00032564

  Components of energy : 

--------------------------------------------------------------------------------
  Interatomic potentials     =         109.56073525 eV    
  Three-body potentials      =           0.13828645 eV    
  Monopole - monopole (real) =         -91.76663601 eV    
  Monopole - monopole (recip)=        -358.91554985 eV    
  Monopole - monopole (total)=        -450.68218586 eV    
  Dispersion (real+recip)    =          -8.93502454 eV    
--------------------------------------------------------------------------------
  Total lattice energy       =        -349.91818871 eV    
--------------------------------------------------------------------------------
  Total lattice energy       =          -33761.7562 kJ/(mole unit cells)
--------------------------------------------------------------------------------

  Final fractional coordinates of atoms :

--------------------------------------------------------------------------------
   No.  Atomic        x           y          z          Radius
        Label       (Frac)      (Frac)     (Frac)       (Angs) 
--------------------------------------------------------------------------------
     1  Si    c     0.000000    0.468200    0.666666    0.000000
     2  Si    c     0.437720    0.382937    0.985983    0.000000
     3  Al    c     0.554078    0.945190    0.348162    0.000000
     4  Na    c     0.003014    0.663720    0.172946    0.000000
     5  O     c     0.425683    0.089718    0.110384    0.000000
     6  O     c     0.910226    0.237974    0.439180    0.000000
     7  O     c     0.706686    0.509342    0.765697    0.000000
     8  O     c     0.272427    0.804787    0.581252    0.000000
     9  O     c     0.557987    0.647271    0.194681    0.000000
    10  O     c     0.099504    0.321739    0.895929    0.000000
    11  O     s     0.430378    0.111658    0.110753    0.000000
    12  O     s     0.895392    0.245537    0.457115    0.000000
    13  O     s     0.710394    0.494018    0.777581    0.000000
    14  O     s     0.258601    0.775655    0.575272    0.000000
    15  O     s     0.548849    0.640130    0.182824    0.000000
    16  O     s     0.125044    0.344545    0.883905    0.000000
--------------------------------------------------------------------------------

  Final Cartesian lattice vectors (Angstroms) :

        4.914730    0.000000    0.000000
       -2.457365    4.256281    0.000000
        0.000000    0.000000    5.406570


  Final cell parameters and derivatives :

--------------------------------------------------------------------------------
       a            4.914730 Angstrom     dE/de1(xx)     0.000000 eV/strain
       b            4.914730 Angstrom     dE/de2(yy)     0.000000 eV/strain
       c            5.406570 Angstrom     dE/de3(zz)     0.000000 eV/strain
       alpha       90.000000 Degrees      dE/de4(yz)     0.000000 eV/strain
       beta        90.000000 Degrees      dE/de5(xz)     0.000000 eV/strain
       gamma      120.000000 Degrees      dE/de6(xy)     0.000000 eV/strain
--------------------------------------------------------------------------------

  Primitive cell volume =           113.097184 Angs**3

  Density of cell =      2.968096 g/cm**3

  Non-primitive cell volume =           113.097184 Angs**3


  Final internal derivatives :

--------------------------------------------------------------------------------
   No.  Atomic          a             b             c           Radius
        Label          (eV)          (eV)          (eV)        (eV/Angs)
--------------------------------------------------------------------------------
      1 Si    c       0.000000      0.000000      0.000000      0.000000
      2 Si    c      -0.003629      0.009324      0.001166      0.000000
      3 Al    c       0.001508     -0.003124      0.000481      0.000000
      4 Na    c      -0.000427     -0.000550      0.000000      0.000000
      5 O     c       0.000460     -0.003241      0.002174      0.000000
      6 O     c       0.000595      0.000294     -0.001870      0.000000
      7 O     c      -0.000771      0.000039      0.001259      0.000000
      8 O     c       0.001435      0.000349     -0.000789      0.000000
      9 O     c       0.000006     -0.001299     -0.004983      0.000000
     10 O     c      -0.000855      0.000070      0.001395      0.000000
     11 O     s       0.002277     -0.001389     -0.002661      0.000000
     12 O     s       0.001480     -0.001624      0.001110      0.000000
     13 O     s      -0.000656     -0.000584      0.000503      0.000000
     14 O     s      -0.001836      0.000673      0.000020      0.000000
     15 O     s      -0.000370      0.000596      0.002134      0.000000
     16 O     s      -0.000839      0.001508     -0.002097      0.000000
--------------------------------------------------------------------------------
  Maximum abs         0.003629      0.009324      0.004983      0.000000
--------------------------------------------------------------------------------


  Distance calculation :


  Cutoff for distances  =      2.500000 Angstroms

--------------------------------------------------------------------------------
  Asymmetric unit site  Full lattice sites    No.  Distance      No.  Distance
      No.   At.No.            At.No.                (Angs)             (Angs) 
--------------------------------------------------------------------------------
       1   Si    core        O     core         1    1.5775        1    1.5898
                                                1    1.6266        1    1.6423
                             O     shell        1    1.4774        1    1.4907
                                                1    1.5811        1    1.6069
--------------------------------------------------------------------------------
       2   Si    core        O     core         1    1.5644        1    1.5945
                                                1    1.6095        1    1.6525
                             O     shell        1    1.4785        1    1.5292
                                                1    1.5530        1    1.6223
--------------------------------------------------------------------------------
       3   Al    core        O     core         1    1.6905        1    1.6914
                                                1    1.7331        1    1.7393
                             O     shell        1    1.6922        1    1.7347
                                                1    1.7609        1    1.7843
--------------------------------------------------------------------------------
       4   Na    core        O     core         1    2.1128        1    2.1511
                                                1    2.3883        1    2.4678
                                                1    2.4878
                             O     shell        1    2.1771        1    2.1788
                                                1    2.4036        1    2.4333
                                                1    2.4766        1    2.4906
--------------------------------------------------------------------------------
       5   O     core        Na    core         1    2.1128
                             Al    core         1    1.7331
                             Si    core         1    1.5644
                             O     shell        1    0.0984        1    2.4900
--------------------------------------------------------------------------------
       6   O     core        Na    core         1    2.3883
                             Al    core         1    1.6905
                             Si    core         1    1.5775
                             O     shell        1    0.1371        1    2.4355
--------------------------------------------------------------------------------
       7   O     core        Si    core         1    1.6423        1    1.6525
                             O     shell        1    0.1073
--------------------------------------------------------------------------------
       8   O     core        Na    core         1    2.4878
                             Al    core         1    1.7393
                             Si    core         1    1.5898
                             O     shell        1    0.1282
--------------------------------------------------------------------------------
       9   O     core        Na    core         1    2.1511
                             Al    core         1    1.6914
                             Si    core         1    1.5945
                             O     shell        1    0.0760        1    2.4244
--------------------------------------------------------------------------------
      10   O     core        Na    core         1    2.4678
                             Si    core         1    1.6095        1    1.6266
                             O     shell        1    0.1359
--------------------------------------------------------------------------------
      11   O     shell       Na    core         1    2.1788
                             Al    core         1    1.7843
                             Si    core         1    1.4785
                             O     core         1    0.0984        1    2.4244
                             O     shell        1    2.3926        1    2.4666
--------------------------------------------------------------------------------
      12   O     shell       Na    core         1    2.4036
                             Al    core         1    1.6922
                             Si    core         1    1.4774
                             O     core         1    0.1371
                             O     shell        1    2.3941
--------------------------------------------------------------------------------
      13   O     shell       Na    core         1    2.4766
                             Si    core         1    1.6069        1    1.6223
                             O     core         1    0.1073
                             O     shell        1    2.4666
--------------------------------------------------------------------------------
      14   O     shell       Na    core         1    2.4333
                             Al    core         1    1.7609
                             Si    core         1    1.4907
                             O     core         1    0.1282        1    2.4355
                             O     shell        1    2.3941
--------------------------------------------------------------------------------
      15   O     shell       Na    core         1    2.1771
                             Al    core         1    1.7347
                             Si    core         1    1.5292
                             O     core         1    0.0760        1    2.4900
                             O     shell        1    2.3926        1    2.4566
--------------------------------------------------------------------------------
      16   O     shell       Na    core         1    2.4906
                             Si    core         1    1.5530        1    1.5811
                             O     core         1    0.1359
                             O     shell        1    2.4566
--------------------------------------------------------------------------------



  Time to end of optimisation =       1.4720 seconds


  Final energies for configurations from translate option:

--------------------------------------------------------------------------------
    Translate step number                           Energy (eV)                 
--------------------------------------------------------------------------------
             0                                     -349.91818878
             1                                     -349.63319722
             2                                     -349.63085565
             3                                     -349.49236940
             4                                     -349.49636552
             5                                     -349.41476258
             6                                     -349.59881174
             7                                     -349.66370625
             8                                     -349.46611789
             9                                     -349.45706830
            10                                     -349.91818871
--------------------------------------------------------------------------------


  Peak dynamic memory used =       0.61 MB 


  Timing analysis for GULP :

--------------------------------------------------------------------------------
  Task / Subroutine                                          Time (Seconds)
--------------------------------------------------------------------------------
  Calculation of reciprocal space energy and derivatives          0.5770
  Calculation of real space energy and derivatives                0.7372
  Calculation of three-body energy and derivatives                0.0667
  Calculation and manipulation of Hessian matrix                  0.0946
  Calculation of matrix inversion                                 0.0005
  Global summation overhead                                       0.0009
--------------------------------------------------------------------------------
  Total CPU time                                                  1.4721
--------------------------------------------------------------------------------


  Dump file written as example11.grs


  Job Finished at 15:18.33  4th July       2018                               

