********************************************************************************
*                       GENERAL UTILITY LATTICE PROGRAM                        *
*                                 Julian Gale                                  *
*                       Curtin Institute for Computation                       *
*                           Department of Chemistry                            *
*                    Curtin University, Western Australia                      *
********************************************************************************
* Version = 5.1.0 * Last modified =   4th July 2018                            *
********************************************************************************
*  optimise     - perform optimisation run                                     *
*  conp         - constant pressure calculation                                *
*  phonon       - calculate phonons for final geometry                         *
*  eckart       - remove rotation/translation from vibrations of molecules     *
*  eigenvectors - output phonon eigenvectors                                   *
*  intensity    - calculate phonon eigenvectors and estimate IR intensities    *
*  molecule     - molecule option activated, Coulomb subtract within molecule  *
********************************************************************************

  Job Started  at 15:36.20  4th July       2018                               

  Number of CPUs =     1

  Host name      = M-A0010516-S                            


  Total number of configurations input =      1

********************************************************************************
*  Input for Configuration =   1                                               *
********************************************************************************

  Formula = OH2                                                         

  Number of irreducible atoms/shells =       3


  Total number atoms/shells =       3

  Dimensionality = 0               :  Cluster


  Charge on cluster =   0.000000


  Initial cluster dipoles : x =      0.000000 e.Angs
                            y =      0.000000 e.Angs
                            z =      0.000000 e.Angs

  Temperature of configuration =  0.000     K 

  Symmetry number =      1

  Cartesian coordinates of cluster :

--------------------------------------------------------------------------------
   No.  Atomic       x           y          z         Charge      Occupancy
        Label      (Angs)      (Angs)     (Angs)        (e)         (Frac)  
--------------------------------------------------------------------------------
      1 O2    c      0.2000      0.0000      0.0000     0.00000    1.000000    
      2 H2    c      0.8000 *    0.6000 *    0.3000 *   0.00000    1.000000    
      3 H2    c     -0.8000 *    0.6000 *    0.1000 *   0.00000    1.000000    
--------------------------------------------------------------------------------



  Molecule list generated from bond lengths :

  Total number of molecules =     1

--------------------------------------------------------------------------------
Molecule No./:  Atoms
Periodicity  :  
--------------------------------------------------------------------------------
     1  0    : O2   c     1 H2   c     2 H2   c     3
--------------------------------------------------------------------------------

  Brillouin zone sampling points :

--------------------------------------------------------------------------------
  Point number          x          y          z            Weight
--------------------------------------------------------------------------------
        1           0.000000   0.000000   0.000000     1.00000000
--------------------------------------------------------------------------------


********************************************************************************
*  General input information                                                   *
********************************************************************************

  Species output for all configurations : 

--------------------------------------------------------------------------------
  Species    Type    Atomic    Atomic    Charge       Radii (Angs)     Library
                     Number     Mass       (e)     Cova   Ionic  VDW   Symbol
--------------------------------------------------------------------------------
    O2       Core        8      16.00   0.000000   0.730  0.000  1.360          
    H2       Core        1       1.01   0.000000   0.370  0.000  1.080          
--------------------------------------------------------------------------------


  Accuracy factor for short range sums = 12.000

  Time limit = Infinity

  Maximum range for interatomic potentials =    100000.000000 Angstroms

  Intramolecular potentials :

--------------------------------------------------------------------------------
Atom  Types   Potential      Parameter       Value         Units   Cutoffs(Ang)
  1     2                                                            Min /  Max 
--------------------------------------------------------------------------------
H2   c O2   c Harmonic      Harmonic k2      45.930000    eV*Ang^-2 0.000 1 Bond
                            Harmonic r0      1.0120000    Ang       
                            Harmonic k3      0.0000000    eV*Ang^-3 
                            Harmonic k4      0.0000000    eV*Ang^-4 
--------------------------------------------------------------------------------

  Intramolecular Three-body potentials :

--------------------------------------------------------------------------------
  Atoms       Potential      Parameter       Value         Units   Cutoffs(Ang)
  1 / 2 / 3                                                          Min /  Max 
--------------------------------------------------------------------------------
O2    core    Harmonic      Three-body cnst  3.2913600    eV*rad^-2 0.000 1 Bond
H2    core                  Three-body angl  113.24000    degrees   0.000 1 Bond
H2    core                  Three-body k4    0.0000000    eV*rad^-4 0.000 1 Bond
                            Three-body k3    0.0000000    eV*rad^-3 
--------------------------------------------------------------------------------

********************************************************************************
*  Output for configuration   1                                                *
********************************************************************************


  Components of energy : 

--------------------------------------------------------------------------------
  Interatomic potentials     =           0.86478699 eV    
  Three-body potentials      =           0.06910562 eV    
  Monopole - monopole (real) =           0.00000000 eV    
--------------------------------------------------------------------------------
  Total lattice energy       =           0.93389261 eV    
--------------------------------------------------------------------------------
  Total lattice energy       =              90.1064 kJ/mol
--------------------------------------------------------------------------------


  Number of variables =        6

  Maximum number of calculations  =          1000
  Maximum Hessian update interval =            10
  Maximum step size               =  10.000000000
  Maximum parameter tolerance     =   0.000010000
  Maximum function  tolerance     =   0.000010000
  Maximum gradient  tolerance     =   0.001000000
  Maximum gradient  component     =   0.010000000

  Symmetry not applied to optimisation

  Newton-Raphson optimiser to be used

  BFGS hessian update to be used

  Lower half triangular hessian to be used

  Start of cluster optimisation :

  Cycle:      0 Energy:         0.933893  Gnorm:      1.493811  CPU:    0.005
  ** Hessian calculated **
  Cycle:      1 Energy:         0.087172  Gnorm:      0.203745  CPU:    0.005
  ** Hessian calculated **
  Cycle:      2 Energy:         0.000838  Gnorm:      0.046177  CPU:    0.005
  Cycle:      3 Energy:         0.000064  Gnorm:      0.012155  CPU:    0.005
  Cycle:      4 Energy:         0.000003  Gnorm:      0.001190  CPU:    0.005


  **** Optimisation achieved ****


  Final energy =       0.00000000 eV
  Final Gnorm  =       0.00002979

  Components of energy : 

--------------------------------------------------------------------------------
  Interatomic potentials     =           0.00000000 eV    
  Three-body potentials      =           0.00000000 eV    
  Monopole - monopole (real) =           0.00000000 eV    
--------------------------------------------------------------------------------
  Total lattice energy       =           0.00000000 eV    
--------------------------------------------------------------------------------
  Total lattice energy       =               0.0000 kJ/mol
--------------------------------------------------------------------------------

  Final cartesian coordinates of atoms :

--------------------------------------------------------------------------------
   No.  Atomic        x           y          z          Radius
        Label       (Angs)      (Angs)     (Angs)       (Angs) 
--------------------------------------------------------------------------------
     1  O2    c     0.200000    0.000000    0.000000    0.000000
     2  H2    c     0.847500    0.698147    0.342742    0.000000
     3  H2    c    -0.761911    0.314438   -0.002325    0.000000
--------------------------------------------------------------------------------


  Final Cartesian derivatives :

--------------------------------------------------------------------------------
   No.  Atomic          x             y             z           Radius
        Label       (eV/Angs)     (eV/Angs)    (eV/Angs)      (eV/Angs)
--------------------------------------------------------------------------------
      1 O2    c       0.000000      0.000000      0.000000      0.000000
      2 H2    c      -0.000095     -0.000105     -0.000051      0.000000
      3 H2    c      -0.000092      0.000029     -0.000001      0.000000
--------------------------------------------------------------------------------
  Maximum abs         0.000095      0.000105      0.000051      0.000000
--------------------------------------------------------------------------------



  Moment of inertia tensor (10^-46 x kgm^2): 

-------------------------------------------------------------------------------
                x           y           z           Principal axis system
-------------------------------------------------------------------------------
       x          0.11       -0.03       -0.04            0.092333
       y         -0.03        0.24       -0.04            0.239542
       z         -0.04       -0.04        0.31            0.331876
-------------------------------------------------------------------------------
  Centre of mass (Ang) =     0.182378     0.056754     0.019080
-------------------------------------------------------------------------------


  Vibrational Frequency Calculation : 

--------------------------------------------------------------------------------

  Frequencies (cm-1) and Eigenvectors : 

  Frequency      -0.0000   -0.0000   -0.0000    0.0000    0.0000    0.0001
  IR Intensity    0.0000    0.0000    0.0000    0.0000    0.0000    0.0000
     in X         0.0000    0.0000    0.0000    0.0000    0.0000    0.0000
     in Y         0.0000    0.0000    0.0000    0.0000    0.0000    0.0000
     in Z         0.0000    0.0000    0.0000    0.0000    0.0000    0.0000
  Raman Intsty    0.0000    0.0000    0.0000    0.0000    0.0000    0.0000

     1 x       0.044643 -0.340201  0.489847  0.274150  0.695838  0.025873
     1 y      -0.167267  0.187465  0.795251  0.027717 -0.449599 -0.068486
     1 z      -0.070626 -0.044861  0.128473 -0.946632  0.257160 -0.020070
     2 x      -0.189464  0.373946  0.016745  0.089646  0.347314 -0.135723
     2 y      -0.305465 -0.439900  0.202373 -0.082144 -0.209557  0.100041
     2 z       0.897988  0.112794  0.227918 -0.095562 -0.064485  0.024815
     3 x      -0.030302  0.126741  0.090201  0.056437  0.252151  0.064530
     3 y      -0.168876  0.696397  0.099008 -0.029336  0.123175  0.153192
     3 z       0.003760  0.002229  0.000257  0.000604  0.009369 -0.968277


  Frequency    1369.7831 3584.0272 3668.0668
  IR Intensity    0.0000    0.0000    0.0000
     in X         0.0000    0.0000    0.0000
     in Y         0.0000    0.0000    0.0000
     in Z         0.0000    0.0000    0.0000
  Raman Intsty    0.0001    0.5874    0.0000

     1 x      -0.076960 -0.054892  0.270864
     1 y       0.247857  0.176785  0.064579
     1 z       0.083326  0.059433  0.058075
     2 x       0.544152 -0.438947 -0.433735
     2 y      -0.400035 -0.482512 -0.467662
     2 z      -0.081994 -0.235811 -0.229590
     3 x      -0.237840  0.657425 -0.644342
     3 y      -0.586473 -0.221119  0.210627
     3 z      -0.249658 -0.000741 -0.001558


--------------------------------------------------------------------------------
  Vibrational properties (for cluster):  Temperature  =       0.000 K
--------------------------------------------------------------------------------
  Zero point energy            =        0.534492 eV
--------------------------------------------------------------------------------

  Time to end of optimisation =       0.0059 seconds


  Peak dynamic memory used =       0.52 MB 


  Timing analysis for GULP :

--------------------------------------------------------------------------------
  Task / Subroutine                                          Time (Seconds)
--------------------------------------------------------------------------------
  Calculation of real space energy and derivatives                0.0002
  Calculation of three-body energy and derivatives                0.0002
  Calculation of phonons                                          0.0003
--------------------------------------------------------------------------------
  Total CPU time                                                  0.0059
--------------------------------------------------------------------------------


  Job Finished at 15:36.20  4th July       2018                               

