********************************************************************************
*                       GENERAL UTILITY LATTICE PROGRAM                        *
*                                 Julian Gale                                  *
*                       Curtin Institute for Computation                       *
*                           Department of Chemistry                            *
*                    Curtin University, Western Australia                      *
********************************************************************************
* Version = 5.1.0 * Last modified =   4th July 2018                            *
********************************************************************************
 Copying current pdf block settings to all configurations
*  optimise     - perform optimisation run                                     *
*  conv         - constant volume calculation                                  *
*  phonon       - calculate phonons for final geometry                         *
*  eigenvectors - output phonon eigenvectors                                   *
*  nosymmetry   - turn off symmetry after initial structure generation         *
*  full         - generate full unit cell when symmetry is removed             *
*  nofrequency  - suppress frequency output after phonon calculation           *
*  noksymmetry  - do not use Brillouin zone symmetry when generating k points  *
*  nokpoints    - do not print out list of k points                            *
*  makeEigenArrays - store all eigenvectors and frequencies after calculation  *
*  coreinfo     - output atomic information for "cores" used                   *
*                 in phonon calculations                                       *
*  PDF          - calculate Pair Distribution Functions                        *
*  nowidth      - suppress output of peak widths for PDFs                      *
*  nopartial    - suppress output of partial Pair Distribution Functions       *
********************************************************************************
* MT Dove fitted potentials for Ca/Sr titanates used for multiple configuratio *
* Both partial and width output is suppressed.                                 *
* This is a test file, so small shrink factors have been used.                 *
* Convergence of phonon properties with k points has NOT been achieved         *
********************************************************************************


  Job Started  at 15:36.16  4th July       2018                               

  Number of CPUs =     1

  Host name      = M-A0010516-S                            


  Total number of configurations input =      4

********************************************************************************
*  Input for Configuration =   1 : Ca0.25Sr0.75TiO3                            *
********************************************************************************

  Formula = CaSr3Ti4O12                                                 

  Number of irreducible atoms/shells =      36


  Total number atoms/shells =      36

  Dimensionality = 3               :  Bulk   



  Cartesian lattice vectors (Angstroms) :

        5.470000    0.000000    0.000000
        0.000000    5.470000    0.000000
        0.000000    0.000000    7.730000

  Cell parameters (Angstroms/Degrees):

  a =       5.4700    alpha =  90.0000
  b =       5.4700    beta  =  90.0000
  c =       7.7300    gamma =  90.0000

  Initial cell volume =         231.288557 Angs**3

  Shrinking factors =      2     2     2

  Temperature of configuration =  0.000     K 

  Pressure of configuration =         0.000 GPa 

  Fractional coordinates of asymmetric unit :

--------------------------------------------------------------------------------
   No.  Atomic       x           y          z         Charge      Occupancy
        Label      (Frac)      (Frac)     (Frac)        (e)         (Frac)  
--------------------------------------------------------------------------------
      1 Ca    c    0.950000 *  0.263000 *  0.250000 *   2.00000    0.250000    
      2 Ca    c    0.450000 *  0.737000 *  0.750000 *   2.00000    0.250000    
      3 Sr    c    0.950000    0.263000    0.250000     2.00000    0.750000    
      4 Sr    c    0.450000    0.737000    0.750000     2.00000    0.750000    
      5 Ca    c    0.446000 *  0.760000 *  0.250000 *   2.00000    0.250000    
      6 Ca    c    0.946000 *  0.240000 *  0.750000 *   2.00000    0.250000    
      7 Sr    c    0.446000    0.760000    0.250000     2.00000    0.750000    
      8 Sr    c    0.946000    0.240000    0.750000     2.00000    0.750000    
      9 Ti    c    0.965000 *  0.749000 *  0.999000 *   4.00000    1.000000    
     10 Ti    c    0.465000 *  0.251000 *  0.001000 *   4.00000    1.000000    
     11 Ti    c    0.465000 *  0.251000 *  0.499000 *   4.00000    1.000000    
     12 Ti    c    0.965000 *  0.749000 *  0.501000 *   4.00000    1.000000    
     13 O1    c    0.910000 *  0.746000 *  0.250000 *   0.84819    1.000000    
     14 O1    c    0.410000 *  0.254000 *  0.750000 *   0.84819    1.000000    
     15 O2    c    0.172000 *  0.031000 *  0.027000 *   0.84819    1.000000    
     16 O2    c    0.672000 *  0.969000 *  0.973000 *   0.84819    1.000000    
     17 O2    c    0.672000 *  0.969000 *  0.527000 *   0.84819    1.000000    
     18 O2    c    0.172000 *  0.031000 *  0.473000 *   0.84819    1.000000    
     19 O3    c    0.006000 *  0.757000 *  0.750000 *   0.84819    1.000000    
     20 O3    c    0.506000 *  0.243000 *  0.250000 *   0.84819    1.000000    
     21 O4    c    0.719000 *  0.485000 *  0.976000 *   0.84819    1.000000    
     22 O4    c    0.219000 *  0.515000 *  0.024000 *   0.84819    1.000000    
     23 O4    c    0.219000 *  0.515000 *  0.476000 *   0.84819    1.000000    
     24 O4    c    0.719000 *  0.485000 *  0.524000 *   0.84819    1.000000    
     25 O1    s    0.910000 *  0.746000 *  0.250000 *  -2.84819    1.000000    
     26 O1    s    0.410000 *  0.254000 *  0.750000 *  -2.84819    1.000000    
     27 O2    s    0.172000 *  0.031000 *  0.027000 *  -2.84819    1.000000    
     28 O2    s    0.672000 *  0.969000 *  0.973000 *  -2.84819    1.000000    
     29 O2    s    0.672000 *  0.969000 *  0.527000 *  -2.84819    1.000000    
     30 O2    s    0.172000 *  0.031000 *  0.473000 *  -2.84819    1.000000    
     31 O3    s    0.006000 *  0.757000 *  0.750000 *  -2.84819    1.000000    
     32 O3    s    0.506000 *  0.243000 *  0.250000 *  -2.84819    1.000000    
     33 O4    s    0.719000 *  0.485000 *  0.976000 *  -2.84819    1.000000    
     34 O4    s    0.219000 *  0.515000 *  0.024000 *  -2.84819    1.000000    
     35 O4    s    0.219000 *  0.515000 *  0.476000 *  -2.84819    1.000000    
     36 O4    s    0.719000 *  0.485000 *  0.524000 *  -2.84819    1.000000    
--------------------------------------------------------------------------------


  Constraints : 

--------------------------------------------------------------------------------
  Constraint no.      Unconstrained     Constrained    Coefficient    Offset
                         Variable         Variable
--------------------------------------------------------------------------------
           1                 1 x             3 x         1.00000      0.0000
           2                 1 y             3 y         1.00000      0.0000
           3                 1 z             3 z         1.00000      0.0000
           4                 2 x             4 x         1.00000      0.0000
           5                 2 y             4 y         1.00000      0.0000
           6                 2 z             4 z         1.00000      0.0000
           7                 5 x             7 x         1.00000      0.0000
           8                 5 y             7 y         1.00000      0.0000
           9                 5 z             7 z         1.00000      0.0000
          10                 6 x             8 x         1.00000      0.0000
          11                 6 y             8 y         1.00000      0.0000
          12                 6 z             8 z         1.00000      0.0000
--------------------------------------------------------------------------------

  PDF uses Gamma centred Brillouin zone with no symmetry reduction


********************************************************************************
*  Input for Configuration =   2 : CaSr(TiO3)2                                 *
********************************************************************************

  Formula = Ca2Sr2Ti4O12                                                

  Number of irreducible atoms/shells =      32


  Total number atoms/shells =      32

  Dimensionality = 3               :  Bulk   



  Cartesian lattice vectors (Angstroms) :

        5.470000    0.000000    0.000000
        0.000000    5.470000    0.000000
        0.000000    0.000000    7.730000

  Cell parameters (Angstroms/Degrees):

  a =       5.4700    alpha =  90.0000
  b =       5.4700    beta  =  90.0000
  c =       7.7300    gamma =  90.0000

  Initial cell volume =         231.288557 Angs**3

  Shrinking factors =      2     2     2

  Temperature of configuration =  0.000     K 

  Pressure of configuration =         0.000 GPa 

  Fractional coordinates of asymmetric unit :

--------------------------------------------------------------------------------
   No.  Atomic       x           y          z         Charge      Occupancy
        Label      (Frac)      (Frac)     (Frac)        (e)         (Frac)  
--------------------------------------------------------------------------------
      1 Ca    c    0.950000    0.263000    0.250000     2.00000    1.000000    
      2 Ca    c    0.450000 *  0.737000 *  0.750000 *   2.00000    1.000000    
      3 Sr    c    0.446000 *  0.760000 *  0.250000 *   2.00000    1.000000    
      4 Sr    c    0.946000 *  0.240000 *  0.750000 *   2.00000    1.000000    
      5 Ti    c    0.965000 *  0.749000 *  0.999000 *   4.00000    1.000000    
      6 Ti    c    0.465000 *  0.251000 *  0.001000 *   4.00000    1.000000    
      7 Ti    c    0.465000 *  0.251000 *  0.499000 *   4.00000    1.000000    
      8 Ti    c    0.965000 *  0.749000 *  0.501000 *   4.00000    1.000000    
      9 O1    c    0.910000 *  0.746000 *  0.250000 *   0.84819    1.000000    
     10 O1    c    0.410000 *  0.254000 *  0.750000 *   0.84819    1.000000    
     11 O2    c    0.172000 *  0.031000 *  0.027000 *   0.84819    1.000000    
     12 O2    c    0.672000 *  0.969000 *  0.973000 *   0.84819    1.000000    
     13 O2    c    0.672000 *  0.969000 *  0.527000 *   0.84819    1.000000    
     14 O2    c    0.172000 *  0.031000 *  0.473000 *   0.84819    1.000000    
     15 O3    c    0.006000 *  0.757000 *  0.750000 *   0.84819    1.000000    
     16 O3    c    0.506000 *  0.243000 *  0.250000 *   0.84819    1.000000    
     17 O4    c    0.719000 *  0.485000 *  0.976000 *   0.84819    1.000000    
     18 O4    c    0.219000 *  0.515000 *  0.024000 *   0.84819    1.000000    
     19 O4    c    0.219000 *  0.515000 *  0.476000 *   0.84819    1.000000    
     20 O4    c    0.719000 *  0.485000 *  0.524000 *   0.84819    1.000000    
     21 O1    s    0.910000 *  0.746000 *  0.250000 *  -2.84819    1.000000    
     22 O1    s    0.410000 *  0.254000 *  0.750000 *  -2.84819    1.000000    
     23 O2    s    0.172000 *  0.031000 *  0.027000 *  -2.84819    1.000000    
     24 O2    s    0.672000 *  0.969000 *  0.973000 *  -2.84819    1.000000    
     25 O2    s    0.672000 *  0.969000 *  0.527000 *  -2.84819    1.000000    
     26 O2    s    0.172000 *  0.031000 *  0.473000 *  -2.84819    1.000000    
     27 O3    s    0.006000 *  0.757000 *  0.750000 *  -2.84819    1.000000    
     28 O3    s    0.506000 *  0.243000 *  0.250000 *  -2.84819    1.000000    
     29 O4    s    0.719000 *  0.485000 *  0.976000 *  -2.84819    1.000000    
     30 O4    s    0.219000 *  0.515000 *  0.024000 *  -2.84819    1.000000    
     31 O4    s    0.219000 *  0.515000 *  0.476000 *  -2.84819    1.000000    
     32 O4    s    0.719000 *  0.485000 *  0.524000 *  -2.84819    1.000000    
--------------------------------------------------------------------------------


  PDF uses Gamma centred Brillouin zone with no symmetry reduction


********************************************************************************
*  Input for Configuration =   3 : Ca0.75Sr0.25TiO3                            *
********************************************************************************

  Formula = Ca3SrTi4O12                                                 

  Number of irreducible atoms/shells =      36


  Total number atoms/shells =      36

  Dimensionality = 3               :  Bulk   



  Cartesian lattice vectors (Angstroms) :

        5.470000    0.000000    0.000000
        0.000000    5.470000    0.000000
        0.000000    0.000000    7.730000

  Cell parameters (Angstroms/Degrees):

  a =       5.4700    alpha =  90.0000
  b =       5.4700    beta  =  90.0000
  c =       7.7300    gamma =  90.0000

  Initial cell volume =         231.288557 Angs**3

  Shrinking factors =      2     2     2

  Temperature of configuration =  0.000     K 

  Pressure of configuration =         0.000 GPa 

  Fractional coordinates of asymmetric unit :

--------------------------------------------------------------------------------
   No.  Atomic       x           y          z         Charge      Occupancy
        Label      (Frac)      (Frac)     (Frac)        (e)         (Frac)  
--------------------------------------------------------------------------------
      1 Ca    c    0.950000 *  0.263000 *  0.250000 *   2.00000    0.750000    
      2 Ca    c    0.450000 *  0.737000 *  0.750000 *   2.00000    0.750000    
      3 Sr    c    0.950000    0.263000    0.250000     2.00000    0.250000    
      4 Sr    c    0.450000    0.737000    0.750000     2.00000    0.250000    
      5 Ca    c    0.446000 *  0.760000 *  0.250000 *   2.00000    0.750000    
      6 Ca    c    0.946000 *  0.240000 *  0.750000 *   2.00000    0.750000    
      7 Sr    c    0.446000    0.760000    0.250000     2.00000    0.250000    
      8 Sr    c    0.946000    0.240000    0.750000     2.00000    0.250000    
      9 Ti    c    0.965000 *  0.749000 *  0.999000 *   4.00000    1.000000    
     10 Ti    c    0.465000 *  0.251000 *  0.001000 *   4.00000    1.000000    
     11 Ti    c    0.465000 *  0.251000 *  0.499000 *   4.00000    1.000000    
     12 Ti    c    0.965000 *  0.749000 *  0.501000 *   4.00000    1.000000    
     13 O1    c    0.910000 *  0.746000 *  0.250000 *   0.84819    1.000000    
     14 O1    c    0.410000 *  0.254000 *  0.750000 *   0.84819    1.000000    
     15 O2    c    0.172000 *  0.031000 *  0.027000 *   0.84819    1.000000    
     16 O2    c    0.672000 *  0.969000 *  0.973000 *   0.84819    1.000000    
     17 O2    c    0.672000 *  0.969000 *  0.527000 *   0.84819    1.000000    
     18 O2    c    0.172000 *  0.031000 *  0.473000 *   0.84819    1.000000    
     19 O3    c    0.006000 *  0.757000 *  0.750000 *   0.84819    1.000000    
     20 O3    c    0.506000 *  0.243000 *  0.250000 *   0.84819    1.000000    
     21 O4    c    0.719000 *  0.485000 *  0.976000 *   0.84819    1.000000    
     22 O4    c    0.219000 *  0.515000 *  0.024000 *   0.84819    1.000000    
     23 O4    c    0.219000 *  0.515000 *  0.476000 *   0.84819    1.000000    
     24 O4    c    0.719000 *  0.485000 *  0.524000 *   0.84819    1.000000    
     25 O1    s    0.910000 *  0.746000 *  0.250000 *  -2.84819    1.000000    
     26 O1    s    0.410000 *  0.254000 *  0.750000 *  -2.84819    1.000000    
     27 O2    s    0.172000 *  0.031000 *  0.027000 *  -2.84819    1.000000    
     28 O2    s    0.672000 *  0.969000 *  0.973000 *  -2.84819    1.000000    
     29 O2    s    0.672000 *  0.969000 *  0.527000 *  -2.84819    1.000000    
     30 O2    s    0.172000 *  0.031000 *  0.473000 *  -2.84819    1.000000    
     31 O3    s    0.006000 *  0.757000 *  0.750000 *  -2.84819    1.000000    
     32 O3    s    0.506000 *  0.243000 *  0.250000 *  -2.84819    1.000000    
     33 O4    s    0.719000 *  0.485000 *  0.976000 *  -2.84819    1.000000    
     34 O4    s    0.219000 *  0.515000 *  0.024000 *  -2.84819    1.000000    
     35 O4    s    0.219000 *  0.515000 *  0.476000 *  -2.84819    1.000000    
     36 O4    s    0.719000 *  0.485000 *  0.524000 *  -2.84819    1.000000    
--------------------------------------------------------------------------------


  Constraints : 

--------------------------------------------------------------------------------
  Constraint no.      Unconstrained     Constrained    Coefficient    Offset
                         Variable         Variable
--------------------------------------------------------------------------------
           1                 1 x             3 x         1.00000      0.0000
           2                 1 y             3 y         1.00000      0.0000
           3                 1 z             3 z         1.00000      0.0000
           4                 2 x             4 x         1.00000      0.0000
           5                 2 y             4 y         1.00000      0.0000
           6                 2 z             4 z         1.00000      0.0000
           7                 5 x             7 x         1.00000      0.0000
           8                 5 y             7 y         1.00000      0.0000
           9                 5 z             7 z         1.00000      0.0000
          10                 6 x             8 x         1.00000      0.0000
          11                 6 y             8 y         1.00000      0.0000
          12                 6 z             8 z         1.00000      0.0000
--------------------------------------------------------------------------------

  PDF uses Gamma centred Brillouin zone with no symmetry reduction


********************************************************************************
*  Input for Configuration =   4 : CaTiO3                                      *
********************************************************************************

  Formula = Ca4Ti4O12                                                   

  Number of irreducible atoms/shells =      32


  Total number atoms/shells =      32

  Dimensionality = 3               :  Bulk   



  Cartesian lattice vectors (Angstroms) :

        5.378500    0.000000    0.000000
        0.000000    5.441900    0.000000
        0.000000    0.000000    7.640000

  Cell parameters (Angstroms/Degrees):

  a =       5.3785    alpha =  90.0000
  b =       5.4419    beta  =  90.0000
  c =       7.6400    gamma =  90.0000

  Initial cell volume =         223.617140 Angs**3

  Shrinking factors =      2     2     2

  Temperature of configuration =  0.000     K 

  Pressure of configuration =         0.000 GPa 

  Fractional coordinates of asymmetric unit :

--------------------------------------------------------------------------------
   No.  Atomic       x           y          z         Charge      Occupancy
        Label      (Frac)      (Frac)     (Frac)        (e)         (Frac)  
--------------------------------------------------------------------------------
      1 Ca    c    0.993000    0.033000    0.250000     2.00000    1.000000    
      2 Ca    c    0.493000 *  0.467000 *  0.750000 *   2.00000    1.000000    
      3 Ca    c    0.507000 *  0.533000 *  0.250000 *   2.00000    1.000000    
      4 Ca    c    0.007000 *  0.967000 *  0.750000 *   2.00000    1.000000    
      5 Ti    c    0.000000 *  0.500000 *  0.000000 *   4.00000    1.000000    
      6 Ti    c    0.500000 *  0.000000 *  0.000000 *   4.00000    1.000000    
      7 Ti    c    0.500000 *  0.000000 *  0.500000 *   4.00000    1.000000    
      8 Ti    c    0.000000 *  0.500000 *  0.500000 *   4.00000    1.000000    
      9 O1    c    0.072000 *  0.489000 *  0.250000 *   0.84819    1.000000    
     10 O1    c    0.572000 *  0.011000 *  0.750000 *   0.84819    1.000000    
     11 O1    c    0.428000 *  0.989000 *  0.250000 *   0.84819    1.000000    
     12 O1    c    0.928000 *  0.511000 *  0.750000 *   0.84819    1.000000    
     13 O2    c    0.717000 *  0.284000 *  0.035000 *   0.84819    1.000000    
     14 O2    c    0.217000 *  0.216000 *  0.965000 *   0.84819    1.000000    
     15 O2    c    0.783000 *  0.784000 *  0.465000 *   0.84819    1.000000    
     16 O2    c    0.283000 *  0.716000 *  0.535000 *   0.84819    1.000000    
     17 O2    c    0.283000 *  0.716000 *  0.965000 *   0.84819    1.000000    
     18 O2    c    0.783000 *  0.784000 *  0.035000 *   0.84819    1.000000    
     19 O2    c    0.217000 *  0.216000 *  0.535000 *   0.84819    1.000000    
     20 O2    c    0.717000 *  0.284000 *  0.465000 *   0.84819    1.000000    
     21 O1    s    0.072000 *  0.489000 *  0.250000 *  -2.84819    1.000000    
     22 O1    s    0.572000 *  0.011000 *  0.750000 *  -2.84819    1.000000    
     23 O1    s    0.428000 *  0.989000 *  0.250000 *  -2.84819    1.000000    
     24 O1    s    0.928000 *  0.511000 *  0.750000 *  -2.84819    1.000000    
     25 O2    s    0.717000 *  0.284000 *  0.035000 *  -2.84819    1.000000    
     26 O2    s    0.217000 *  0.216000 *  0.965000 *  -2.84819    1.000000    
     27 O2    s    0.783000 *  0.784000 *  0.465000 *  -2.84819    1.000000    
     28 O2    s    0.283000 *  0.716000 *  0.535000 *  -2.84819    1.000000    
     29 O2    s    0.283000 *  0.716000 *  0.965000 *  -2.84819    1.000000    
     30 O2    s    0.783000 *  0.784000 *  0.035000 *  -2.84819    1.000000    
     31 O2    s    0.217000 *  0.216000 *  0.535000 *  -2.84819    1.000000    
     32 O2    s    0.717000 *  0.284000 *  0.465000 *  -2.84819    1.000000    
--------------------------------------------------------------------------------


  PDF uses Gamma centred Brillouin zone with no symmetry reduction


********************************************************************************
*  General input information                                                   *
********************************************************************************

  Species output for all configurations : 

--------------------------------------------------------------------------------
  Species    Type    Atomic    Atomic    Charge       Radii (Angs)     Library
                     Number     Mass       (e)     Cova   Ionic  VDW   Symbol
--------------------------------------------------------------------------------
    Sr       Core       38      87.62   2.000000   1.120  0.000  1.670          
    Ca       Core       20      40.08   2.000000   0.990  0.000  2.750          
    Ti       Core       22      47.88   4.000000   1.470  0.000  2.190          
    O        Core        8      16.00   0.848190   0.730  0.000  1.360          
    O        Shell       8       0.00  -2.848190   0.730  0.000  1.360          
--------------------------------------------------------------------------------


  Species output for PDF data: 

--------------------------------------------------------------------------------
  Species    Type       bbar     sigma_inc  sigma_coh     
                       (Angs)     (Angs^2)   (Angs^2)     
--------------------------------------------------------------------------------
    Sr       Core     0.7020E-04 0.5724E-09 0.6193E-07
    Ca       Core     0.4760E-04 0.4276E-09 0.2847E-07
    Ti       Core     -.3438E-04 0.2865E-07 0.1485E-07
    O        Core     0.5803E-04 0.2987E-11 0.4232E-07
    O        Shell    0.5803E-04 0.2987E-11 0.4232E-07
--------------------------------------------------------------------------------




********************************************************************************
*  PDF Input Settings                                                          *
********************************************************************************




!!!!!!!!!!!!!!!!!!!!!!!!!!!!!!!!!!!!!!!!!!!!!!!!!!!!!!!!!!!!!!!!!!!!!!!!!!!!!!!!
!! ADVICE  : 'pdf all' option acts on all configurations
!!!!!!!!!!!!!!!!!!!!!!!!!!!!!!!!!!!!!!!!!!!!!!!!!!!!!!!!!!!!!!!!!!!!!!!!!!!!!!!!

********************************************************************************
*  PDF parameters for each configuration 
*
*  Configuration   1
********************************************************************************
 Pair Distribution Function to be calculated up to  6.0000 A
 300 rbins to be used.
********************************************************************************
*  Configuration   2
********************************************************************************
 Pair Distribution Function to be calculated up to  6.0000 A
 300 rbins to be used.
********************************************************************************
*  Configuration   3
********************************************************************************
 Pair Distribution Function to be calculated up to  6.0000 A
 300 rbins to be used.
********************************************************************************
*  Configuration   4
********************************************************************************
 Pair Distribution Function to be calculated up to  6.0000 A
 300 rbins to be used.
********************************************************************************
  Lattice summation method               =    Ewald          (3-D)
                                         =    Parry          (2-D)
                                         =    Saunders et al (1-D)
  Accuracy factor for lattice sums       =   12.000


  Time limit = Infinity

  Maximum range for interatomic potentials =    100000.000000 Angstroms

  C6 terms to be calculated in real/reciprocal space by one-centre decomposition

  General interatomic potentials :

--------------------------------------------------------------------------------
Atom  Types   Potential      Parameter       Value         Units   Cutoffs(Ang)
  1     2                                                            Min /  Max 
--------------------------------------------------------------------------------
Sr   c O    s Buckingham    Buckingham A     13329.779    eV        0.000 10.000
                            Buckingham rho  0.24000000    Ang       
                            Buckingham C     0.0000000    eV*Ang^6  
--------------------------------------------------------------------------------
Ti   c O    s Buckingham    Buckingham A     2526.2674    eV        0.000 10.000
                            Buckingham rho  0.28880000    Ang       
                            Buckingham C     0.0000000    eV*Ang^6  
--------------------------------------------------------------------------------
O    s O    s Buckingham    Buckingham A     481913.54    eV        0.000 10.000
                            Buckingham rho  0.14900000    Ang       
                            Buckingham C     27.880000    eV*Ang^6  
--------------------------------------------------------------------------------
Ca   c O    s Buckingham    Buckingham A     2273.8827    eV        0.000 10.000
                            Buckingham rho  0.29860000    Ang       
                            Buckingham C     0.0000000    eV*Ang^6  
--------------------------------------------------------------------------------
O    c O    s Spring (c-s)  Spring k 2       58.204115    eV*Ang^-2 0.000  0.800
                            Spring k 4       0.0000000    eV*Ang^-4 
--------------------------------------------------------------------------------

********************************************************************************
*  Output for configuration   1 : Ca0.25Sr0.75TiO3                             *
********************************************************************************


  Components of energy : 

--------------------------------------------------------------------------------
  Interatomic potentials     =          81.33507677 eV    
  Monopole - monopole (real) =        -333.31948584 eV    
  Monopole - monopole (recip)=        -400.64827490 eV    
  Monopole - monopole (total)=        -733.96776074 eV    
  Dispersion (real+recip)    =          -3.87599781 eV    
--------------------------------------------------------------------------------
  Total lattice energy       =        -656.50868178 eV    
--------------------------------------------------------------------------------
  Total lattice energy       =          -63343.0521 kJ/(mole unit cells)
--------------------------------------------------------------------------------


  Number of variables =       96

  Maximum number of calculations  =          1000
  Maximum Hessian update interval =            10
  Maximum step size               =  10.000000000
  Maximum parameter tolerance     =   0.000010000
  Maximum function  tolerance     =   0.000010000
  Maximum gradient  tolerance     =   0.001000000
  Maximum gradient  component     =   0.010000000

  Newton-Raphson optimiser to be used

  BFGS hessian update to be used

  Lower half triangular hessian to be used

  Start of bulk optimisation :

  Cycle:      0 Energy:      -656.508682  Gnorm:      0.730911  CPU:    0.022
  ** Hessian calculated **
  Cycle:      1 Energy:      -657.114460  Gnorm:      0.251587  CPU:    0.034
  Cycle:      2 Energy:      -657.238987  Gnorm:      0.157952  CPU:    0.044
  Cycle:      3 Energy:      -657.321312  Gnorm:      0.148656  CPU:    0.056
  Cycle:      4 Energy:      -657.362811  Gnorm:      0.132938  CPU:    0.066
  Cycle:      5 Energy:      -657.440786  Gnorm:      0.134497  CPU:    0.078
  Cycle:      6 Energy:      -657.505596  Gnorm:      0.177466  CPU:    0.091
  Cycle:      7 Energy:      -657.586737  Gnorm:      0.112213  CPU:    0.103
  Cycle:      8 Energy:      -657.631866  Gnorm:      0.101242  CPU:    0.113
  Cycle:      9 Energy:      -657.668738  Gnorm:      0.067134  CPU:    0.125
  Cycle:     10 Energy:      -657.693968  Gnorm:      0.080915  CPU:    0.136
  ** Hessian calculated **
  Cycle:     11 Energy:      -657.758661  Gnorm:      0.127454  CPU:    0.156
  ** Hessian calculated **
  Cycle:     12 Energy:      -657.779587  Gnorm:      0.044208  CPU:    0.175
  Cycle:     13 Energy:      -657.783773  Gnorm:      0.031392  CPU:    0.185
  Cycle:     14 Energy:      -657.787411  Gnorm:      0.031943  CPU:    0.196
  Cycle:     15 Energy:      -657.789610  Gnorm:      0.024518  CPU:    0.205
  Cycle:     16 Energy:      -657.791178  Gnorm:      0.019290  CPU:    0.215
  Cycle:     17 Energy:      -657.793158  Gnorm:      0.031314  CPU:    0.225
  Cycle:     18 Energy:      -657.795264  Gnorm:      0.032515  CPU:    0.238
  Cycle:     19 Energy:      -657.797661  Gnorm:      0.027833  CPU:    0.250
  Cycle:     20 Energy:      -657.800139  Gnorm:      0.029382  CPU:    0.260
  Cycle:     21 Energy:      -657.801759  Gnorm:      0.019786  CPU:    0.270
  ** Hessian calculated **
  Cycle:     22 Energy:      -657.802464  Gnorm:      0.020177  CPU:    0.289
  Cycle:     23 Energy:      -657.803433  Gnorm:      0.022467  CPU:    0.299
  Cycle:     24 Energy:      -657.804388  Gnorm:      0.021533  CPU:    0.309
  Cycle:     25 Energy:      -657.805107  Gnorm:      0.016771  CPU:    0.320
  Cycle:     26 Energy:      -657.805960  Gnorm:      0.016078  CPU:    0.330
  Cycle:     27 Energy:      -657.806815  Gnorm:      0.020949  CPU:    0.340
  Cycle:     28 Energy:      -657.807781  Gnorm:      0.018359  CPU:    0.350
  Cycle:     29 Energy:      -657.809373  Gnorm:      0.020799  CPU:    0.364
  Cycle:     30 Energy:      -657.810501  Gnorm:      0.019200  CPU:    0.374
  Cycle:     31 Energy:      -657.811563  Gnorm:      0.021083  CPU:    0.383
  ** Hessian calculated **
  Cycle:     32 Energy:      -657.812173  Gnorm:      0.014036  CPU:    0.401
  Cycle:     33 Energy:      -657.812724  Gnorm:      0.014275  CPU:    0.411
  Cycle:     34 Energy:      -657.813376  Gnorm:      0.011542  CPU:    0.420
  Cycle:     35 Energy:      -657.813872  Gnorm:      0.015127  CPU:    0.431
  Cycle:     36 Energy:      -657.814362  Gnorm:      0.011923  CPU:    0.441
  Cycle:     37 Energy:      -657.814782  Gnorm:      0.010867  CPU:    0.452
  Cycle:     38 Energy:      -657.815123  Gnorm:      0.010999  CPU:    0.465
  Cycle:     39 Energy:      -657.815409  Gnorm:      0.010624  CPU:    0.475
  Cycle:     40 Energy:      -657.815673  Gnorm:      0.009993  CPU:    0.486
  Cycle:     41 Energy:      -657.815906  Gnorm:      0.009639  CPU:    0.496
  ** Hessian calculated **
  Cycle:     42 Energy:      -657.819100  Gnorm:      0.006359  CPU:    0.522
  Cycle:     43 Energy:      -657.820082  Gnorm:      0.006039  CPU:    0.537
  ** Hessian calculated **
  Cycle:     44 Energy:      -657.820121  Gnorm:      0.003348  CPU:    0.555
  Cycle:     45 Energy:      -657.820148  Gnorm:      0.003966  CPU:    0.565
  Cycle:     46 Energy:      -657.820183  Gnorm:      0.003974  CPU:    0.574
  Cycle:     47 Energy:      -657.820208  Gnorm:      0.003274  CPU:    0.584
  Cycle:     48 Energy:      -657.820243  Gnorm:      0.004010  CPU:    0.595
  Cycle:     49 Energy:      -657.820279  Gnorm:      0.004060  CPU:    0.604
  Cycle:     50 Energy:      -657.820319  Gnorm:      0.003019  CPU:    0.614
  Cycle:     51 Energy:      -657.820355  Gnorm:      0.003616  CPU:    0.625
  Cycle:     52 Energy:      -657.820390  Gnorm:      0.003775  CPU:    0.634
  Cycle:     53 Energy:      -657.820435  Gnorm:      0.005057  CPU:    0.644
  ** Hessian calculated **
  Cycle:     54 Energy:      -657.820463  Gnorm:      0.003380  CPU:    0.661
  Cycle:     55 Energy:      -657.820493  Gnorm:      0.003292  CPU:    0.672
  Cycle:     56 Energy:      -657.820516  Gnorm:      0.002686  CPU:    0.682
  Cycle:     57 Energy:      -657.820536  Gnorm:      0.002955  CPU:    0.694
  Cycle:     58 Energy:      -657.820560  Gnorm:      0.002407  CPU:    0.705
  Cycle:     59 Energy:      -657.820577  Gnorm:      0.002249  CPU:    0.715
  Cycle:     60 Energy:      -657.820591  Gnorm:      0.002567  CPU:    0.725
  Cycle:     61 Energy:      -657.820608  Gnorm:      0.002733  CPU:    0.735
  Cycle:     62 Energy:      -657.820619  Gnorm:      0.002356  CPU:    0.745
  Cycle:     63 Energy:      -657.820633  Gnorm:      0.002616  CPU:    0.756
  ** Hessian calculated **
  Cycle:     64 Energy:      -657.820643  Gnorm:      0.002190  CPU:    0.779
  Cycle:     65 Energy:      -657.820653  Gnorm:      0.002413  CPU:    0.789
  Cycle:     66 Energy:      -657.820664  Gnorm:      0.002250  CPU:    0.800
  Cycle:     67 Energy:      -657.820674  Gnorm:      0.001902  CPU:    0.809
  Cycle:     68 Energy:      -657.820685  Gnorm:      0.001862  CPU:    0.820
  Cycle:     69 Energy:      -657.820696  Gnorm:      0.002272  CPU:    0.832
  Cycle:     70 Energy:      -657.820710  Gnorm:      0.001929  CPU:    0.845
  Cycle:     71 Energy:      -657.820721  Gnorm:      0.002222  CPU:    0.855
  Cycle:     72 Energy:      -657.820734  Gnorm:      0.002086  CPU:    0.865
  Cycle:     73 Energy:      -657.820747  Gnorm:      0.003017  CPU:    0.876
  ** Hessian calculated **
  Cycle:     74 Energy:      -657.820756  Gnorm:      0.001997  CPU:    0.894
  Cycle:     75 Energy:      -657.820767  Gnorm:      0.001927  CPU:    0.904
  Cycle:     76 Energy:      -657.820775  Gnorm:      0.001588  CPU:    0.914
  Cycle:     77 Energy:      -657.820783  Gnorm:      0.001706  CPU:    0.924
  Cycle:     78 Energy:      -657.820790  Gnorm:      0.001408  CPU:    0.935
  Cycle:     79 Energy:      -657.820795  Gnorm:      0.001341  CPU:    0.945
  Cycle:     80 Energy:      -657.820800  Gnorm:      0.001370  CPU:    0.956
  Cycle:     81 Energy:      -657.820806  Gnorm:      0.001633  CPU:    0.966
  Cycle:     82 Energy:      -657.820810  Gnorm:      0.001354  CPU:    0.976
  Cycle:     83 Energy:      -657.820814  Gnorm:      0.001583  CPU:    0.988
  ** Hessian calculated **
  Cycle:     84 Energy:      -657.820818  Gnorm:      0.001272  CPU:    1.008
  Cycle:     85 Energy:      -657.820821  Gnorm:      0.001462  CPU:    1.018
  Cycle:     86 Energy:      -657.820825  Gnorm:      0.001280  CPU:    1.028
  Cycle:     87 Energy:      -657.820829  Gnorm:      0.001089  CPU:    1.038
  Cycle:     88 Energy:      -657.820833  Gnorm:      0.001120  CPU:    1.048
  Cycle:     89 Energy:      -657.820837  Gnorm:      0.001302  CPU:    1.058
  Cycle:     90 Energy:      -657.820842  Gnorm:      0.001092  CPU:    1.068
  Cycle:     91 Energy:      -657.820845  Gnorm:      0.001362  CPU:    1.078
  Cycle:     92 Energy:      -657.820850  Gnorm:      0.001245  CPU:    1.088
  Cycle:     93 Energy:      -657.820854  Gnorm:      0.001866  CPU:    1.098
  ** Hessian calculated **
  Cycle:     94 Energy:      -657.820858  Gnorm:      0.001155  CPU:    1.116
  Cycle:     95 Energy:      -657.820862  Gnorm:      0.001160  CPU:    1.127
  Cycle:     96 Energy:      -657.820864  Gnorm:      0.000943  CPU:    1.138
  Cycle:     97 Energy:      -657.820867  Gnorm:      0.000962  CPU:    1.150
  Cycle:     98 Energy:      -657.820870  Gnorm:      0.000853  CPU:    1.159
  Cycle:     99 Energy:      -657.820871  Gnorm:      0.000761  CPU:    1.169
  Cycle:    100 Energy:      -657.820873  Gnorm:      0.000819  CPU:    1.179
  Cycle:    101 Energy:      -657.820875  Gnorm:      0.000973  CPU:    1.190
  Cycle:    102 Energy:      -657.820877  Gnorm:      0.000788  CPU:    1.203
  Cycle:    103 Energy:      -657.820878  Gnorm:      0.000963  CPU:    1.213
  ** Hessian calculated **
  Cycle:    104 Energy:      -657.820879  Gnorm:      0.000742  CPU:    1.235
  Cycle:    105 Energy:      -657.820881  Gnorm:      0.000886  CPU:    1.246
  Cycle:    106 Energy:      -657.820882  Gnorm:      0.000754  CPU:    1.259
  Cycle:    107 Energy:      -657.820884  Gnorm:      0.000634  CPU:    1.271
  Cycle:    108 Energy:      -657.820885  Gnorm:      0.000671  CPU:    1.281
  Cycle:    109 Energy:      -657.820886  Gnorm:      0.000755  CPU:    1.293
  Cycle:    110 Energy:      -657.820888  Gnorm:      0.000667  CPU:    1.307
  Cycle:    111 Energy:      -657.820889  Gnorm:      0.000805  CPU:    1.320
  Cycle:    112 Energy:      -657.820891  Gnorm:      0.000732  CPU:    1.330
  Cycle:    113 Energy:      -657.820892  Gnorm:      0.001139  CPU:    1.340
  ** Hessian calculated **
  Cycle:    114 Energy:      -657.820894  Gnorm:      0.000683  CPU:    1.358
  Cycle:    115 Energy:      -657.820895  Gnorm:      0.000698  CPU:    1.368
  Cycle:    116 Energy:      -657.820896  Gnorm:      0.000565  CPU:    1.379
  Cycle:    117 Energy:      -657.820897  Gnorm:      0.000568  CPU:    1.389
  Cycle:    118 Energy:      -657.820898  Gnorm:      0.000520  CPU:    1.400
  Cycle:    119 Energy:      -657.820899  Gnorm:      0.000443  CPU:    1.410
  Cycle:    120 Energy:      -657.820899  Gnorm:      0.000501  CPU:    1.420
  Cycle:    121 Energy:      -657.820900  Gnorm:      0.000579  CPU:    1.430
  Cycle:    122 Energy:      -657.820901  Gnorm:      0.000470  CPU:    1.441
  Cycle:    123 Energy:      -657.820901  Gnorm:      0.000581  CPU:    1.451
  ** Hessian calculated **
  Cycle:    124 Energy:      -657.820902  Gnorm:      0.000443  CPU:    1.470
  Cycle:    125 Energy:      -657.820902  Gnorm:      0.000534  CPU:    1.480
  Cycle:    126 Energy:      -657.820903  Gnorm:      0.000454  CPU:    1.491
  Cycle:    127 Energy:      -657.820903  Gnorm:      0.000378  CPU:    1.500
  Cycle:    128 Energy:      -657.820904  Gnorm:      0.000403  CPU:    1.510
  Cycle:    129 Energy:      -657.820904  Gnorm:      0.000451  CPU:    1.520


  **** Optimisation achieved ****


  Final energy =    -657.82090465 eV
  Final Gnorm  =       0.00040594

  Components of energy : 

--------------------------------------------------------------------------------
  Interatomic potentials     =          83.64262458 eV    
  Monopole - monopole (real) =        -155.22480814 eV    
  Monopole - monopole (recip)=        -582.24168554 eV    
  Monopole - monopole (total)=        -737.46649368 eV    
  Dispersion (real+recip)    =          -3.99703555 eV    
--------------------------------------------------------------------------------
  Total lattice energy       =        -657.82090465 eV    
--------------------------------------------------------------------------------
  Total lattice energy       =          -63469.6616 kJ/(mole unit cells)
--------------------------------------------------------------------------------

  Final fractional coordinates of atoms :

--------------------------------------------------------------------------------
   No.  Atomic        x           y          z          Radius
        Label       (Frac)      (Frac)     (Frac)       (Angs) 
--------------------------------------------------------------------------------
     1  Ca    c     0.925363    0.234288    0.254018    0.000000
     2  Ca    c     0.425359    0.734282    0.754017    0.000000
     3  Sr    c     0.925363    0.234288    0.254018    0.000000
     4  Sr    c     0.425359    0.734282    0.754017    0.000000
     5  Ca    c     0.425359    0.734285    0.254011    0.000000
     6  Ca    c     0.925362    0.234287    0.754011    0.000000
     7  Sr    c     0.425359    0.734285    0.254011    0.000000
     8  Sr    c     0.925362    0.234287    0.754011    0.000000
     9  Ti    c     0.925403    0.734266    0.004014    0.000000
    10  Ti    c     0.425396    0.234265    0.004014    0.000000
    11  Ti    c     0.425405    0.234265    0.504012    0.000000
    12  Ti    c     0.925397    0.734268    0.504012    0.000000
    13  O1    c     0.925078    0.734271    0.254018    0.000000
    14  O1    c     0.425078    0.234272    0.754018    0.000000
    15  O2    c     0.175279    0.984380    0.004182    0.000000
    16  O2    c     0.675281    0.984150    0.003851    0.000000
    17  O2    c     0.675287    0.984167    0.504177    0.000000
    18  O2    c     0.175285    0.984377    0.503845    0.000000
    19  O3    c     0.925763    0.734269    0.754010    0.000000
    20  O3    c     0.425763    0.234267    0.254010    0.000000
    21  O4    c     0.675543    0.484142    0.003848    0.000000
    22  O4    c     0.175543    0.484403    0.004181    0.000000
    23  O4    c     0.175537    0.484387    0.503845    0.000000
    24  O4    c     0.675535    0.484143    0.504179    0.000000
    25  O1    s     0.925100    0.734268    0.254018    0.000000
    26  O1    s     0.425100    0.234269    0.754018    0.000000
    27  O2    s     0.175288    0.984370    0.004172    0.000000
    28  O2    s     0.675287    0.984159    0.003861    0.000000
    29  O2    s     0.675290    0.984175    0.504168    0.000000
    30  O2    s     0.175297    0.984371    0.503856    0.000000
    31  O3    s     0.925740    0.734266    0.754008    0.000000
    32  O3    s     0.425740    0.234265    0.254008    0.000000
    33  O4    s     0.675540    0.484153    0.003859    0.000000
    34  O4    s     0.175535    0.484393    0.004172    0.000000
    35  O4    s     0.175530    0.484375    0.503856    0.000000
    36  O4    s     0.675532    0.484154    0.504169    0.000000
--------------------------------------------------------------------------------

  Final internal derivatives :

--------------------------------------------------------------------------------
   No.  Atomic          a             b             c           Radius
        Label          (eV)          (eV)          (eV)        (eV/Angs)
--------------------------------------------------------------------------------
      1 Ca    c       0.000444      0.002012      0.001597      0.000000
      2 Ca    c      -0.000611      0.001736      0.001596      0.000000
      3 Sr    c       0.000000      0.000000      0.000000      0.000000
      4 Sr    c       0.000000      0.000000      0.000000      0.000000
      5 Ca    c      -0.003806      0.001459      0.001051      0.000000
      6 Ca    c      -0.002944      0.001422      0.001089      0.000000
      7 Sr    c       0.000000      0.000000      0.000000      0.000000
      8 Sr    c       0.000000      0.000000      0.000000      0.000000
      9 Ti    c       0.004902     -0.004189     -0.006722      0.000000
     10 Ti    c      -0.008764     -0.004513     -0.005561      0.000000
     11 Ti    c       0.005868     -0.002831     -0.003798      0.000000
     12 Ti    c      -0.004802     -0.000753     -0.002667      0.000000
     13 O1    c      -0.001608      0.001453      0.006358      0.000000
     14 O1    c      -0.001978      0.002336      0.006473      0.000000
     15 O2    c      -0.001367      0.001902     -0.000410      0.000000
     16 O2    c      -0.000908     -0.001389     -0.005529      0.000000
     17 O2    c      -0.000216      0.003202     -0.002197      0.000000
     18 O2    c      -0.006445     -0.003569     -0.006273      0.000000
     19 O3    c       0.003578      0.002586      0.003444      0.000000
     20 O3    c       0.001652      0.000812      0.003351      0.000000
     21 O4    c       0.001589      0.001190     -0.007247      0.000000
     22 O4    c       0.001161      0.001071     -0.003088      0.000000
     23 O4    c       0.005887      0.000506     -0.004787      0.000000
     24 O4    c      -0.000616     -0.002050      0.000710      0.000000
     25 O1    s      -0.004213     -0.000146     -0.004217      0.000000
     26 O1    s      -0.003003     -0.001278     -0.004347      0.000000
     27 O2    s      -0.003217     -0.004688      0.007081      0.000000
     28 O2    s      -0.001770      0.002895      0.007921      0.000000
     29 O2    s      -0.005213      0.000776      0.004240      0.000000
     30 O2    s       0.001674      0.001988      0.003494      0.000000
     31 O3    s       0.006325     -0.002692     -0.007192      0.000000
     32 O3    s       0.009493     -0.000744     -0.007100      0.000000
     33 O4    s       0.002885     -0.002190      0.008219      0.000000
     34 O4    s       0.002637      0.004265      0.009073      0.000000
     35 O4    s      -0.001188      0.000082      0.002880      0.000000
     36 O4    s       0.004575     -0.000661      0.002557      0.000000
--------------------------------------------------------------------------------
  Maximum abs         0.009493      0.004688      0.009073      0.000000
--------------------------------------------------------------------------------


  Born effective charge tensors : 

-------------------------------------------------------------------------------
  Atom             x           y             z
-------------------------------------------------------------------------------
    1 Ca    x       0.5862     -0.0000      0.0000
            y      -0.0000      0.5862      0.0000
            z       0.0000      0.0000      0.5862
-------------------------------------------------------------------------------
    2 Ca    x       0.5862      0.0000      0.0000
            y       0.0000      0.5862     -0.0000
            z       0.0000     -0.0000      0.5862
-------------------------------------------------------------------------------
    3 Sr    x       1.7479     -0.0000      0.0000
            y      -0.0000      1.7479      0.0000
            z       0.0000      0.0000      1.7477
-------------------------------------------------------------------------------
    4 Sr    x       1.7479      0.0000      0.0000
            y       0.0000      1.7479      0.0000
            z       0.0000     -0.0000      1.7477
-------------------------------------------------------------------------------
    5 Ca    x       0.5862      0.0000     -0.0000
            y       0.0000      0.5862      0.0000
            z      -0.0000      0.0000      0.5862
-------------------------------------------------------------------------------
    6 Ca    x       0.5862     -0.0000     -0.0000
            y      -0.0000      0.5862     -0.0000
            z      -0.0000     -0.0000      0.5862
-------------------------------------------------------------------------------
    7 Sr    x       1.7479      0.0000     -0.0000
            y       0.0001      1.7479     -0.0000
            z      -0.0000      0.0000      1.7477
-------------------------------------------------------------------------------
    8 Sr    x       1.7479     -0.0000     -0.0000
            y      -0.0001      1.7479     -0.0000
            z      -0.0000     -0.0000      1.7477
-------------------------------------------------------------------------------
    9 Ti    x       3.6765      0.0002      0.0011
            y      -0.0009      3.6765      0.0000
            z      -0.0012      0.0000      3.6656
-------------------------------------------------------------------------------
   10 Ti    x       3.6767     -0.0002     -0.0011
            y       0.0009      3.6768     -0.0000
            z       0.0012     -0.0000      3.6651
-------------------------------------------------------------------------------
   11 Ti    x       3.6766     -0.0001      0.0011
            y       0.0009      3.6765      0.0000
            z      -0.0012      0.0000      3.6656
-------------------------------------------------------------------------------
   12 Ti    x       3.6767      0.0001     -0.0011
            y      -0.0009      3.6768     -0.0000
            z       0.0012     -0.0000      3.6651
-------------------------------------------------------------------------------
   13 O1    x      -1.6652     -0.0002     -0.0000
            y       0.0002     -1.6652     -0.0000
            z       0.0000     -0.0000     -2.6699
-------------------------------------------------------------------------------
   14 O1    x      -1.6652      0.0002     -0.0000
            y      -0.0002     -1.6653      0.0000
            z       0.0000      0.0000     -2.6700
-------------------------------------------------------------------------------
   15 O2    x      -2.1727     -0.5067     -0.0000
            y      -0.5067     -2.1727     -0.0000
            z      -0.0000     -0.0000     -1.6646
-------------------------------------------------------------------------------
   16 O2    x      -2.1728      0.5068      0.0000
            y       0.5068     -2.1728     -0.0000
            z       0.0000      0.0000     -1.6646
-------------------------------------------------------------------------------
   17 O2    x      -2.1727      0.5067     -0.0000
            y       0.5067     -2.1727      0.0000
            z      -0.0000     -0.0000     -1.6646
-------------------------------------------------------------------------------
   18 O2    x      -2.1728     -0.5068      0.0000
            y      -0.5068     -2.1728      0.0000
            z       0.0000      0.0000     -1.6646
-------------------------------------------------------------------------------
   19 O3    x      -1.6652     -0.0002      0.0000
            y       0.0002     -1.6652      0.0000
            z      -0.0000      0.0000     -2.6700
-------------------------------------------------------------------------------
   20 O3    x      -1.6652      0.0002      0.0000
            y      -0.0002     -1.6652     -0.0000
            z      -0.0000     -0.0000     -2.6699
-------------------------------------------------------------------------------
   21 O4    x      -2.1728     -0.5068     -0.0000
            y      -0.5069     -2.1728      0.0000
            z      -0.0000     -0.0000     -1.6646
-------------------------------------------------------------------------------
   22 O4    x      -2.1727      0.5068      0.0000
            y       0.5067     -2.1727      0.0000
            z       0.0000     -0.0000     -1.6646
-------------------------------------------------------------------------------
   23 O4    x      -2.1728      0.5068     -0.0000
            y       0.5069     -2.1728     -0.0000
            z      -0.0000      0.0000     -1.6647
-------------------------------------------------------------------------------
   24 O4    x      -2.1727     -0.5068      0.0000
            y      -0.5067     -2.1727     -0.0000
            z       0.0000      0.0000     -1.6646
-------------------------------------------------------------------------------




  Elastic Constant Matrix: (Units=GPa)

-------------------------------------------------------------------------------
  Indices      1         2         3         4         5         6    
-------------------------------------------------------------------------------
       1    446.7248   89.3380  140.3344   -0.0000    0.0001   -0.0000
       2     89.3380  446.7248  140.3344   -0.0000    0.0000    0.0000
       3    140.3344  140.3344  397.7694   -0.0000    0.0001    0.0000
       4     -0.0000   -0.0000   -0.0000  178.4821    0.0000    0.0000
       5      0.0001    0.0000    0.0001    0.0000  178.4818   -0.0000
       6     -0.0000    0.0000    0.0000    0.0000   -0.0000  127.5807
-------------------------------------------------------------------------------

  Elastic Constant Tensor Eigenvalues: (Units=GPa)

-------------------------------------------------------------------------------
     1 =   127.5807     2 =   178.4818     3 =   178.4821
     4 =   256.7524     5 =   357.3868     6 =   677.0798
-------------------------------------------------------------------------------


  Elastic Compliance Matrix: (Units=1/GPa)

-------------------------------------------------------------------------------
  Indices      1         2         3         4         5         6    
-------------------------------------------------------------------------------
       1    0.002543 -0.000255 -0.000807 -0.000000 -0.000000  0.000000
       2   -0.000255  0.002543 -0.000807  0.000000  0.000000 -0.000000
       3   -0.000807 -0.000807  0.003084  0.000000 -0.000000 -0.000000
       4   -0.000000  0.000000  0.000000  0.005603 -0.000000 -0.000000
       5   -0.000000  0.000000 -0.000000 -0.000000  0.005603  0.000000
       6    0.000000 -0.000000 -0.000000 -0.000000  0.000000  0.007838
-------------------------------------------------------------------------------

  Mechanical properties :

-------------------------------------------------------------------------------
  Convention :                    Reuss         Voigt         Hill
-------------------------------------------------------------------------------
  Bulk  Modulus (GPa)     =     225.69132     225.69252     225.69192
  Shear Modulus (GPa)     =     154.18038     158.32307     156.25172
-------------------------------------------------------------------------------
  Velocity S-wave (km/s)  =       5.59314       5.66779       5.63059
  Velocity P-wave (km/s)  =       9.35435       9.41408       9.38426
-------------------------------------------------------------------------------
  Compressibility (1/GPa) =    0.00443083
-------------------------------------------------------------------------------
  Stress axis :                     x             y             z
-------------------------------------------------------------------------------
  Youngs Moduli (GPa)     =     393.22096     393.22089     324.29390
-------------------------------------------------------------------------------
  Poissons Ratio (x)      =                     0.10027       0.26179
  Poissons Ratio (y)      =       0.10027                     0.26179
  Poissons Ratio (z)      =       0.31743       0.31743
-------------------------------------------------------------------------------


  Piezoelectric Strain Matrix: (Units=C/m**2)

-------------------------------------------------------------------------------
  Indices      1         2         3         4         5         6    
-------------------------------------------------------------------------------
       x    -0.09242  -0.01826  -0.03790   0.00006   0.00199  -0.00329
       y    -0.00045   0.02519   0.01580   0.00198   0.00006  -0.01731
       z     0.00062   0.00064  -0.00093   0.01278  -0.03665   0.00013
-------------------------------------------------------------------------------


  Piezoelectric Stress Matrix: (Units=10**-11 C/N)

-------------------------------------------------------------------------------
  Indices      1         2         3         4         5         6    
-------------------------------------------------------------------------------
       x    -0.01998   0.00077  -0.00275   0.00003   0.00111  -0.00258
       y    -0.00203   0.00514   0.00287   0.00111   0.00003  -0.01356
       z     0.00022   0.00022  -0.00039   0.00716  -0.02054   0.00010
-------------------------------------------------------------------------------


  Static dielectric constant tensor : 

-------------------------------------------------------------------------------
              x         y         z
-------------------------------------------------------------------------------
       x    23.48559   0.00001  -0.00004
       y     0.00001  23.48704  -0.00002
       z    -0.00004  -0.00002  23.20125
--------------------------------------------------------------------------------

  High frequency dielectric constant tensor : 

-------------------------------------------------------------------------------
              x         y         z
-------------------------------------------------------------------------------
       x     2.52685   0.00000  -0.00000
       y     0.00000   2.52685  -0.00000
       z    -0.00000  -0.00000   2.52476
-------------------------------------------------------------------------------

  Static refractive indices : 

-------------------------------------------------------------------------------
    1 =    4.81677      2 =    4.84619      3 =    4.84634
-------------------------------------------------------------------------------

  High frequency refractive indices : 

-------------------------------------------------------------------------------
    1 =    1.58895      2 =    1.58961      3 =    1.58961
-------------------------------------------------------------------------------


  Phonon Calculation : 

  Number of k points for this configuration =        8

--------------------------------------------------------------------------------
 (Core) Atomic information:
--------------------------------------------------------------------------------
Atom  1(CaSr):
  Mass     =  0.1258E-24 kg
  bbar     =  0.6455E-04 Ang
  sigma_inc     =  0.5362E-09 Ang^2
  Sigma_coh     =  0.5236E-07 Ang^2
  Cartesian  position =   5.06173387    1.28155441    1.96355591  Ang
  Fractional position =   0.92536268    0.23428783    0.25401758
Atom  2(CaSr):
  Mass     =  0.1258E-24 kg
  bbar     =  0.6455E-04 Ang
  sigma_inc     =  0.5362E-09 Ang^2
  Sigma_coh     =  0.5236E-07 Ang^2
  Cartesian  position =   2.32671525    4.01652179    5.82855509  Ang
  Fractional position =   0.42535928    0.73428186    0.75401748
Atom  3(CaSr):
  Mass     =  0.1258E-24 kg
  bbar     =  0.6455E-04 Ang
  sigma_inc     =  0.5362E-09 Ang^2
  Sigma_coh     =  0.5236E-07 Ang^2
  Cartesian  position =   2.32671492    4.01653749    1.96350122  Ang
  Fractional position =   0.42535922    0.73428473    0.25401051
Atom  4(CaSr):
  Mass     =  0.1258E-24 kg
  bbar     =  0.6455E-04 Ang
  sigma_inc     =  0.5362E-09 Ang^2
  Sigma_coh     =  0.5236E-07 Ang^2
  Cartesian  position =   5.06173139    1.28155159    5.82850202  Ang
  Fractional position =   0.92536223    0.23428731    0.75401061
Atom  5(Ti):
  Mass     =  0.7951E-25 kg
  bbar     = -0.3438E-04 Ang
  sigma_inc     =  0.2865E-07 Ang^2
  Sigma_coh     =  0.1485E-07 Ang^2
  Cartesian  position =   5.06195712    4.01643666    0.03102727  Ang
  Fractional position =   0.92540349    0.73426630    0.00401388
Atom  6(Ti):
  Mass     =  0.7951E-25 kg
  bbar     = -0.3438E-04 Ang
  sigma_inc     =  0.2865E-07 Ang^2
  Sigma_coh     =  0.1485E-07 Ang^2
  Cartesian  position =   2.32691732    1.28142885    0.03103018  Ang
  Fractional position =   0.42539622    0.23426487    0.00401425
Atom  7(Ti):
  Mass     =  0.7951E-25 kg
  bbar     = -0.3438E-04 Ang
  sigma_inc     =  0.2865E-07 Ang^2
  Sigma_coh     =  0.1485E-07 Ang^2
  Cartesian  position =   2.32696383    1.28143014    3.89601098  Ang
  Fractional position =   0.42540472    0.23426511    0.50401177
Atom  8(Ti):
  Mass     =  0.7951E-25 kg
  bbar     = -0.3438E-04 Ang
  sigma_inc     =  0.2865E-07 Ang^2
  Sigma_coh     =  0.1485E-07 Ang^2
  Cartesian  position =   5.06191902    4.01644404    3.89601369  Ang
  Fractional position =   0.92539653    0.73426765    0.50401212
Atom  9(O1):
  Mass     =  0.2657E-25 kg
  bbar     =  0.5803E-04 Ang
  sigma_inc     =  0.2987E-11 Ang^2
  Sigma_coh     =  0.4232E-07 Ang^2
  Cartesian  position =   5.06017635    4.01646111    1.96355601  Ang
  Fractional position =   0.92507794    0.73427077    0.25401759
Atom 10(O1):
  Mass     =  0.2657E-25 kg
  bbar     =  0.5803E-04 Ang
  sigma_inc     =  0.2987E-11 Ang^2
  Sigma_coh     =  0.4232E-07 Ang^2
  Cartesian  position =   2.32517706    1.28146820    5.82855613  Ang
  Fractional position =   0.42507807    0.23427207    0.75401761
Atom 11(O2):
  Mass     =  0.2657E-25 kg
  bbar     =  0.5803E-04 Ang
  sigma_inc     =  0.2987E-11 Ang^2
  Sigma_coh     =  0.4232E-07 Ang^2
  Cartesian  position =   0.95877880    5.38456099    0.03232723  Ang
  Fractional position =   0.17527949    0.98438044    0.00418205
Atom 12(O2):
  Mass     =  0.2657E-25 kg
  bbar     =  0.5803E-04 Ang
  sigma_inc     =  0.2987E-11 Ang^2
  Sigma_coh     =  0.4232E-07 Ang^2
  Cartesian  position =   3.69378451    5.38330120    0.02976442  Ang
  Fractional position =   0.67528053    0.98415013    0.00385051
Atom 13(O2):
  Mass     =  0.2657E-25 kg
  bbar     =  0.5803E-04 Ang
  sigma_inc     =  0.2987E-11 Ang^2
  Sigma_coh     =  0.4232E-07 Ang^2
  Cartesian  position =   3.69381996    5.38339574    3.89728622  Ang
  Fractional position =   0.67528701    0.98416741    0.50417674
Atom 14(O2):
  Mass     =  0.2657E-25 kg
  bbar     =  0.5803E-04 Ang
  sigma_inc     =  0.2987E-11 Ang^2
  Sigma_coh     =  0.4232E-07 Ang^2
  Cartesian  position =   0.95881093    5.38454111    3.89471843  Ang
  Fractional position =   0.17528536    0.98437680    0.50384456
Atom 15(O3):
  Mass     =  0.2657E-25 kg
  bbar     =  0.5803E-04 Ang
  sigma_inc     =  0.2987E-11 Ang^2
  Sigma_coh     =  0.4232E-07 Ang^2
  Cartesian  position =   5.06392558    4.01644929    5.82849921  Ang
  Fractional position =   0.92576336    0.73426861    0.75401025
Atom 16(O3):
  Mass     =  0.2657E-25 kg
  bbar     =  0.5803E-04 Ang
  sigma_inc     =  0.2987E-11 Ang^2
  Sigma_coh     =  0.4232E-07 Ang^2
  Cartesian  position =   2.32892387    1.28143831    1.96349912  Ang
  Fractional position =   0.42576305    0.23426660    0.25401024
Atom 17(O4):
  Mass     =  0.2657E-25 kg
  bbar     =  0.5803E-04 Ang
  sigma_inc     =  0.2987E-11 Ang^2
  Sigma_coh     =  0.4232E-07 Ang^2
  Cartesian  position =   3.69521961    2.64825488    0.02974592  Ang
  Fractional position =   0.67554289    0.48414166    0.00384811
Atom 18(O4):
  Mass     =  0.2657E-25 kg
  bbar     =  0.5803E-04 Ang
  sigma_inc     =  0.2987E-11 Ang^2
  Sigma_coh     =  0.4232E-07 Ang^2
  Cartesian  position =   0.96021794    2.64968712    0.03231821  Ang
  Fractional position =   0.17554258    0.48440350    0.00418088
Atom 19(O4):
  Mass     =  0.2657E-25 kg
  bbar     =  0.5803E-04 Ang
  sigma_inc     =  0.2987E-11 Ang^2
  Sigma_coh     =  0.4232E-07 Ang^2
  Cartesian  position =   0.96019007    2.64959779    3.89472553  Ang
  Fractional position =   0.17553749    0.48438717    0.50384548
Atom 20(O4):
  Mass     =  0.2657E-25 kg
  bbar     =  0.5803E-04 Ang
  sigma_inc     =  0.2987E-11 Ang^2
  Sigma_coh     =  0.4232E-07 Ang^2
  Cartesian  position =   3.69517902    2.64826361    3.89730644  Ang
  Fractional position =   0.67553547    0.48414326    0.50417936
--------------------------------------------------------------------------------
  Start of PDF calculation
--------------------------------------------------------------------------------

  PDF information:

  Maximum radius        =  6.000 Ang
  Number density        =  0.086 Ang(^-3)
  (Sum{c_i bbar_i} )^2  =  0.1669E-08

  Using primitive cell parameters   5.4700   5.4700   7.7300
  Testing primitive vectors with x,y,z=-(n+1) to n, n=    2
[width output suppressed by keyword nowidth]
  PDF statistics:

  Maximum width^2  was  0.2437E-01 Ang^2
  Number of pairs      1480
  Angular frequency range used:
   0.163314E+14 to  0.153887E+15 rad/s 
   0.259923E+01 to  0.244919E+02 THz   

  PDF output being written to example46_Cap25Srp75TiO3.pdfs
--------------------------------------------------------------------------------
  End of PDF calculation
--------------------------------------------------------------------------------

--------------------------------------------------------------------------------
  Phonon properties (per mole of unit cells): Temperature =      0.000 K
--------------------------------------------------------------------------------
  Zero point energy            =        1.358636 eV
--------------------------------------------------------------------------------

  Phonon density of states : 

--------------------------------------------------------------------------------
 Frequency (cm-1) Density of States                                             
--------------------------------------------------------------------------------
    0.00000 |                                                              0.000
   12.76501 |                                                              0.000
   25.53002 |                                                              0.000
   38.29503 |                                                              0.000
   51.06004 |                                                              0.000
   63.82505 |                                                              0.000
   76.59006 |************                                                  0.017
   89.35506 |************************************************************  0.083
  102.12007 |************************************                          0.050
  114.88508 |************************                                      0.033
  127.65009 |************                                                  0.017
  140.41510 |************                                                  0.017
  153.18011 |************************                                      0.033
  165.94512 |                                                              0.000
  178.71013 |************************************************              0.067
  191.47514 |************                                                  0.017
  204.24015 |                                                              0.000
  217.00516 |                                                              0.000
  229.77017 |************                                                  0.017
  242.53518 |************************************                          0.050
  255.30019 |************                                                  0.017
  268.06519 |                                                              0.000
  280.83020 |************************************                          0.050
  293.59521 |                                                              0.000
  306.36022 |************                                                  0.017
  319.12523 |************                                                  0.017
  331.89024 |                                                              0.000
  344.65525 |                                                              0.000
  357.42026 |************                                                  0.017
  370.18527 |************************                                      0.033
  382.95028 |************************                                      0.033
  395.71529 |************************                                      0.033
  408.48030 |************                                                  0.017
  421.24531 |                                                              0.000
  434.01031 |************************                                      0.033
  446.77532 |************                                                  0.017
  459.54033 |                                                              0.000
  472.30534 |                                                              0.000
  485.07035 |************                                                  0.017
  497.83536 |************                                                  0.017
  510.60037 |                                                              0.000
  523.36538 |************                                                  0.017
  536.13039 |************                                                  0.017
  548.89540 |************                                                  0.017
  561.66041 |                                                              0.000
  574.42542 |************************************                          0.050
  587.19043 |************************                                      0.033
  599.95544 |************                                                  0.017
  612.72044 |                                                              0.000
  625.48545 |                                                              0.000
  638.25046 |                                                              0.000
  651.01547 |************************                                      0.033
  663.78048 |                                                              0.000
  676.54549 |************************                                      0.033
  689.31050 |                                                              0.000
  702.07551 |                                                              0.000
  714.84052 |                                                              0.000
  727.60553 |                                                              0.000
  740.37054 |                                                              0.000
  753.13555 |                                                              0.000
  765.90056 |                                                              0.000
  778.66556 |                                                              0.000
  791.43057 |************************************                          0.050
  804.19558 |************                                                  0.017
--------------------------------------------------------------------------------



  Time to end of optimisation =       1.7789 seconds


********************************************************************************
*  Output for configuration   2 : CaSr(TiO3)2                                  *
********************************************************************************


  Components of energy : 

--------------------------------------------------------------------------------
  Interatomic potentials     =          82.40857868 eV    
  Monopole - monopole (real) =        -333.31948584 eV    
  Monopole - monopole (recip)=        -400.64827490 eV    
  Monopole - monopole (total)=        -733.96776074 eV    
  Dispersion (real+recip)    =          -3.87599781 eV    
--------------------------------------------------------------------------------
  Total lattice energy       =        -655.43517987 eV    
--------------------------------------------------------------------------------
  Total lattice energy       =          -63239.4756 kJ/(mole unit cells)
--------------------------------------------------------------------------------


  Number of variables =       93

  Maximum number of calculations  =          1000
  Maximum Hessian update interval =            10
  Maximum step size               =  10.000000000
  Maximum parameter tolerance     =   0.000010000
  Maximum function  tolerance     =   0.000010000
  Maximum gradient  tolerance     =   0.001000000
  Maximum gradient  component     =   0.010000000

  Newton-Raphson optimiser to be used

  BFGS hessian update to be used

  Lower half triangular hessian to be used

  Start of bulk optimisation :

  Cycle:      0 Energy:      -655.435180  Gnorm:      0.749131  CPU:    1.788
  ** Hessian calculated **
  Cycle:      1 Energy:      -656.612352  Gnorm:      0.085940  CPU:    1.798
  Cycle:      2 Energy:      -656.673124  Gnorm:      0.051023  CPU:    1.809
  Cycle:      3 Energy:      -656.724075  Gnorm:      0.040804  CPU:    1.819
  Cycle:      4 Energy:      -656.737759  Gnorm:      0.016674  CPU:    1.827
  Cycle:      5 Energy:      -656.739983  Gnorm:      0.010571  CPU:    1.834
  Cycle:      6 Energy:      -656.740230  Gnorm:      0.001698  CPU:    1.842
  Cycle:      7 Energy:      -656.740249  Gnorm:      0.000956  CPU:    1.850


  **** Optimisation achieved ****


  Final energy =    -656.74025397 eV
  Final Gnorm  =       0.00044432

  Components of energy : 

--------------------------------------------------------------------------------
  Interatomic potentials     =          84.72337160 eV    
  Monopole - monopole (real) =        -155.22489986 eV    
  Monopole - monopole (recip)=        -582.24168553 eV    
  Monopole - monopole (total)=        -737.46658538 eV    
  Dispersion (real+recip)    =          -3.99704019 eV    
--------------------------------------------------------------------------------
  Total lattice energy       =        -656.74025397 eV    
--------------------------------------------------------------------------------
  Total lattice energy       =          -63365.3953 kJ/(mole unit cells)
--------------------------------------------------------------------------------

  Final fractional coordinates of atoms :

--------------------------------------------------------------------------------
   No.  Atomic        x           y          z          Radius
        Label       (Frac)      (Frac)     (Frac)       (Angs) 
--------------------------------------------------------------------------------
     1  Ca    c     0.950000    0.263000    0.250000    0.000000
     2  Ca    c     0.450000    0.763101    0.750000    0.000000
     3  Sr    c     0.449969    0.763061    0.250000    0.000000
     4  Sr    c     0.949969    0.263040    0.750000    0.000000
     5  Ti    c     0.949995    0.763046    0.999997    0.000000
     6  Ti    c     0.449995    0.263055    0.000003    0.000000
     7  Ti    c     0.449995    0.263055    0.499997    0.000000
     8  Ti    c     0.949995    0.763046    0.500003    0.000000
     9  O1    c     0.950058    0.763062    0.250000    0.000000
    10  O1    c     0.450058    0.263039    0.750000    0.000000
    11  O2    c     0.199939    0.013110    0.999988    0.000000
    12  O2    c     0.699939    0.012991    0.000012    0.000000
    13  O2    c     0.699939    0.012991    0.499988    0.000000
    14  O2    c     0.199939    0.013110    0.500012    0.000000
    15  O3    c     0.949974    0.763061    0.750000    0.000000
    16  O3    c     0.449974    0.263040    0.250000    0.000000
    17  O4    c     0.700045    0.513002    0.000020    0.000000
    18  O4    c     0.200045    0.513099    0.999980    0.000000
    19  O4    c     0.200045    0.513099    0.500020    0.000000
    20  O4    c     0.700045    0.513002    0.499980    0.000000
    21  O1    s     0.950055    0.763062    0.250000    0.000000
    22  O1    s     0.450055    0.263039    0.750000    0.000000
    23  O2    s     0.199945    0.013104    0.999987    0.000000
    24  O2    s     0.699945    0.012997    0.000013    0.000000
    25  O2    s     0.699945    0.012997    0.499987    0.000000
    26  O2    s     0.199945    0.013104    0.500013    0.000000
    27  O3    s     0.949975    0.763061    0.750000    0.000000
    28  O3    s     0.449975    0.263040    0.250000    0.000000
    29  O4    s     0.700044    0.513005    0.000016    0.000000
    30  O4    s     0.200044    0.513096    0.999984    0.000000
    31  O4    s     0.200044    0.513096    0.500016    0.000000
    32  O4    s     0.700044    0.513005    0.499984    0.000000
--------------------------------------------------------------------------------

  Final internal derivatives :

--------------------------------------------------------------------------------
   No.  Atomic          a             b             c           Radius
        Label          (eV)          (eV)          (eV)        (eV/Angs)
--------------------------------------------------------------------------------
      1 Ca    c       0.000000      0.000000      0.000000      0.000000
      2 Ca    c       0.001212      0.006123      0.000000      0.000000
      3 Sr    c      -0.000633      0.001917     -0.000000      0.000000
      4 Sr    c      -0.000633     -0.001917      0.000000      0.000000
      5 Ti    c      -0.003174      0.004651     -0.008903      0.000000
      6 Ti    c      -0.003174     -0.004651      0.008903      0.000000
      7 Ti    c      -0.003174     -0.004651     -0.008903      0.000000
      8 Ti    c      -0.003174      0.004651      0.008903      0.000000
      9 O1    c      -0.000854      0.003659     -0.000000      0.000000
     10 O1    c      -0.000854     -0.003659      0.000000      0.000000
     11 O2    c      -0.001446      0.004969      0.006031      0.000000
     12 O2    c      -0.001446     -0.004969     -0.006031      0.000000
     13 O2    c      -0.001446     -0.004969      0.006031      0.000000
     14 O2    c      -0.001446      0.004969     -0.006031      0.000000
     15 O3    c      -0.001136      0.000497      0.000000      0.000000
     16 O3    c      -0.001136     -0.000497      0.000000      0.000000
     17 O4    c      -0.001840      0.001162      0.007682      0.000000
     18 O4    c      -0.001840     -0.001162     -0.007682      0.000000
     19 O4    c      -0.001840     -0.001162      0.007682      0.000000
     20 O4    c      -0.001840      0.001162     -0.007682      0.000000
     21 O1    s       0.005784     -0.007206     -0.000000      0.000000
     22 O1    s       0.005784      0.007206     -0.000000      0.000000
     23 O2    s       0.000605     -0.003909     -0.005415      0.000000
     24 O2    s       0.000605      0.003909      0.005415      0.000000
     25 O2    s       0.000605      0.003909     -0.005415      0.000000
     26 O2    s       0.000605     -0.003909      0.005415      0.000000
     27 O3    s       0.003020     -0.000751      0.000000      0.000000
     28 O3    s       0.003020      0.000751     -0.000000      0.000000
     29 O4    s       0.002158     -0.002587     -0.008095      0.000000
     30 O4    s       0.002158      0.002587      0.008095      0.000000
     31 O4    s       0.002158      0.002587     -0.008095      0.000000
     32 O4    s       0.002158     -0.002587      0.008095      0.000000
--------------------------------------------------------------------------------
  Maximum abs         0.005784      0.007206      0.008903      0.000000
--------------------------------------------------------------------------------


  Born effective charge tensors : 

-------------------------------------------------------------------------------
  Atom             x           y             z
-------------------------------------------------------------------------------
    1 Ca    x       2.3427     -0.0001      0.0000
[...]
   20 O2    x      -2.0653     -0.4387     -0.0000
            y      -0.4245     -2.0868     -0.0000
            z      -0.0000      0.0000     -1.6416
-------------------------------------------------------------------------------




  Elastic Constant Matrix: (Units=GPa)

-------------------------------------------------------------------------------
  Indices      1         2         3         4         5         6    
-------------------------------------------------------------------------------
       1    478.0635  117.0871  156.7347    0.0000   -0.0000   -0.0000
       2    117.0871  485.0472  152.4820    0.0000   -0.0000   -0.0000
       3    156.7347  152.4820  448.1604    0.0000   -0.0000   -0.0000
       4      0.0000    0.0000    0.0000  180.5488    0.0000   -0.0000
       5     -0.0000   -0.0000   -0.0000    0.0000  182.6671    0.0000
       6     -0.0000   -0.0000   -0.0000   -0.0000    0.0000  144.3085
-------------------------------------------------------------------------------

  Elastic Constant Tensor Eigenvalues: (Units=GPa)

-------------------------------------------------------------------------------
     1 =   144.3085     2 =   180.5488     3 =   182.6671
     4 =   291.8924     5 =   364.7413     6 =   754.6374
-------------------------------------------------------------------------------


  Elastic Compliance Matrix: (Units=1/GPa)

-------------------------------------------------------------------------------
  Indices      1         2         3         4         5         6    
-------------------------------------------------------------------------------
       1    0.002416 -0.000356 -0.000724 -0.000000  0.000000  0.000000
       2   -0.000356  0.002361 -0.000679 -0.000000  0.000000  0.000000
       3   -0.000724 -0.000679  0.002716  0.000000  0.000000  0.000000
       4   -0.000000 -0.000000  0.000000  0.005539 -0.000000  0.000000
       5    0.000000  0.000000  0.000000 -0.000000  0.005474 -0.000000
       6    0.000000  0.000000  0.000000  0.000000 -0.000000  0.006930
-------------------------------------------------------------------------------

  Mechanical properties :

-------------------------------------------------------------------------------
  Convention :                    Reuss         Voigt         Hill
-------------------------------------------------------------------------------
  Bulk  Modulus (GPa)     =     251.53654     251.54206     251.53930
  Shear Modulus (GPa)     =     165.13759     167.16940     166.15350
-------------------------------------------------------------------------------
  Velocity S-wave (km/s)  =       6.39458       6.43380       6.41422
  Velocity P-wave (km/s)  =      10.80765      10.83870      10.82318
-------------------------------------------------------------------------------
  Compressibility (1/GPa) =    0.00397557
-------------------------------------------------------------------------------
  Stress axis :                     x             y             z
-------------------------------------------------------------------------------
  Youngs Moduli (GPa)     =     413.86379     423.56181     368.25030
-------------------------------------------------------------------------------
  Poissons Ratio (x)      =                     0.15064       0.26662
  Poissons Ratio (y)      =       0.14719                     0.25000
  Poissons Ratio (z)      =       0.29965       0.28756
-------------------------------------------------------------------------------


  Piezoelectric Strain Matrix: (Units=C/m**2)

-------------------------------------------------------------------------------
  Indices      1         2         3         4         5         6    
-------------------------------------------------------------------------------
       x     0.00000   0.00000  -0.00000  -0.00000   0.00000   0.00000
       y     0.00000   0.00000  -0.00000   0.00000  -0.00000   0.00000
       z     0.00000   0.00000  -0.00000  -0.00000  -0.00000  -0.00000
-------------------------------------------------------------------------------


  Piezoelectric Stress Matrix: (Units=10**-11 C/N)

-------------------------------------------------------------------------------
  Indices      1         2         3         4         5         6    
-------------------------------------------------------------------------------
       x     0.00000   0.00000  -0.00000  -0.00000   0.00000   0.00000
       y     0.00000   0.00000  -0.00000   0.00000  -0.00000   0.00000
       z     0.00000   0.00000  -0.00000  -0.00000  -0.00000  -0.00000
-------------------------------------------------------------------------------


  Static dielectric constant tensor : 

-------------------------------------------------------------------------------
              x         y         z
-------------------------------------------------------------------------------
       x    16.81756  -0.00000  -0.00000
       y    -0.00000  19.33869   0.00000
       z    -0.00000   0.00000  17.68007
--------------------------------------------------------------------------------

  High frequency dielectric constant tensor : 

-------------------------------------------------------------------------------
              x         y         z
-------------------------------------------------------------------------------
       x     2.54567  -0.00000  -0.00000
       y    -0.00000   2.54691   0.00000
       z    -0.00000   0.00000   2.54176
-------------------------------------------------------------------------------

  Static refractive indices : 

-------------------------------------------------------------------------------
    1 =    4.10092      2 =    4.20477      3 =    4.39758
-------------------------------------------------------------------------------

  High frequency refractive indices : 

-------------------------------------------------------------------------------
    1 =    1.59429      2 =    1.59552      3 =    1.59591
-------------------------------------------------------------------------------


  Phonon Calculation : 

  Number of k points for this configuration =        8

--------------------------------------------------------------------------------
 (Core) Atomic information:
--------------------------------------------------------------------------------
Atom  1(Ca):
  Mass     =  0.6656E-25 kg
  bbar     =  0.4760E-04 Ang
  sigma_inc     =  0.4276E-09 Ang^2
  Sigma_coh     =  0.2847E-07 Ang^2
  Cartesian  position =   5.34085050    0.17958270    1.91000000  Ang
  Fractional position =   0.99300000    0.03300000    0.25000000
Atom  2(Ca):
  Mass     =  0.6656E-25 kg
  bbar     =  0.4760E-04 Ang
  sigma_inc     =  0.4276E-09 Ang^2
  Sigma_coh     =  0.2847E-07 Ang^2
  Cartesian  position =   2.65160050    2.90063398    5.73000000  Ang
  Fractional position =   0.49300000    0.53301861    0.75000000
Atom  3(Ca):
  Mass     =  0.6656E-25 kg
  bbar     =  0.4760E-04 Ang
  sigma_inc     =  0.4276E-09 Ang^2
  Sigma_coh     =  0.2847E-07 Ang^2
  Cartesian  position =   2.65147829    2.90053270    1.91000000  Ang
  Fractional position =   0.49297728    0.53300000    0.25000000
Atom  4(Ca):
  Mass     =  0.6656E-25 kg
  bbar     =  0.4760E-04 Ang
  sigma_inc     =  0.4276E-09 Ang^2
  Sigma_coh     =  0.2847E-07 Ang^2
  Cartesian  position =   5.34072829    0.17968398    5.73000000  Ang
  Fractional position =   0.99297728    0.03301861    0.75000000
Atom  5(Ti):
  Mass     =  0.7951E-25 kg
  bbar     = -0.3438E-04 Ang
  sigma_inc     =  0.2865E-07 Ang^2
  Sigma_coh     =  0.1485E-07 Ang^2
  Cartesian  position =   5.34078939    2.90058334    7.64000000  Ang
  Fractional position =   0.99298864    0.53300931    1.00000000
Atom  6(Ti):
  Mass     =  0.7951E-25 kg
  bbar     = -0.3438E-04 Ang
  sigma_inc     =  0.2865E-07 Ang^2
  Sigma_coh     =  0.1485E-07 Ang^2
  Cartesian  position =   2.65153940    0.17963334    0.00000000  Ang
  Fractional position =   0.49298864    0.03300931    0.00000000
Atom  7(Ti):
  Mass     =  0.7951E-25 kg
  bbar     = -0.3438E-04 Ang
  sigma_inc     =  0.2865E-07 Ang^2
  Sigma_coh     =  0.1485E-07 Ang^2
  Cartesian  position =   2.65153940    0.17963334    3.82000000  Ang
  Fractional position =   0.49298864    0.03300931    0.50000000
Atom  8(Ti):
  Mass     =  0.7951E-25 kg
  bbar     = -0.3438E-04 Ang
  sigma_inc     =  0.2865E-07 Ang^2
  Sigma_coh     =  0.1485E-07 Ang^2
  Cartesian  position =   5.34078940    2.90058334    3.82000000  Ang
  Fractional position =   0.99298864    0.53300931    0.50000000
Atom  9(O1):
  Mass     =  0.2657E-25 kg
  bbar     =  0.5803E-04 Ang
  sigma_inc     =  0.2987E-11 Ang^2
  Sigma_coh     =  0.4232E-07 Ang^2
  Cartesian  position =   5.34057075    2.90054494    1.91000000  Ang
  Fractional position =   0.99294799    0.53300225    0.25000000
Atom 10(O1):
  Mass     =  0.2657E-25 kg
  bbar     =  0.5803E-04 Ang
  sigma_inc     =  0.2987E-11 Ang^2
  Sigma_coh     =  0.4232E-07 Ang^2
  Cartesian  position =   2.65132075    0.17967174    5.73000000  Ang
  Fractional position =   0.49294799    0.03301636    0.75000000
Atom 11(O1):
  Mass     =  0.2657E-25 kg
  bbar     =  0.5803E-04 Ang
  sigma_inc     =  0.2987E-11 Ang^2
  Sigma_coh     =  0.4232E-07 Ang^2
  Cartesian  position =   2.65175804    0.17959494    1.91000000  Ang
  Fractional position =   0.49302929    0.03300225    0.25000000
Atom 12(O1):
  Mass     =  0.2657E-25 kg
  bbar     =  0.5803E-04 Ang
  sigma_inc     =  0.2987E-11 Ang^2
  Sigma_coh     =  0.4232E-07 Ang^2
  Cartesian  position =   5.34100804    2.90062174    5.73000000  Ang
  Fractional position =   0.99302929    0.53301636    0.75000000
Atom 13(O2):
  Mass     =  0.2657E-25 kg
  bbar     =  0.5803E-04 Ang
  sigma_inc     =  0.2987E-11 Ang^2
  Sigma_coh     =  0.4232E-07 Ang^2
  Cartesian  position =   3.99629235    1.53997933    7.63980470  Ang
  Fractional position =   0.74301243    0.28298560    0.99997444
Atom 14(O2):
  Mass     =  0.2657E-25 kg
  bbar     =  0.5803E-04 Ang
  sigma_inc     =  0.2987E-11 Ang^2
  Sigma_coh     =  0.4232E-07 Ang^2
  Cartesian  position =   1.30704235    1.54023735    0.00019530  Ang
  Fractional position =   0.24301243    0.28303301    0.00002556
Atom 15(O2):
  Mass     =  0.2657E-25 kg
  bbar     =  0.5803E-04 Ang
  sigma_inc     =  0.2987E-11 Ang^2
  Sigma_coh     =  0.4232E-07 Ang^2
  Cartesian  position =   3.99603644    4.26092933    3.82019530  Ang
  Fractional position =   0.74296485    0.78298560    0.50002556
Atom 16(O2):
  Mass     =  0.2657E-25 kg
  bbar     =  0.5803E-04 Ang
  sigma_inc     =  0.2987E-11 Ang^2
  Sigma_coh     =  0.4232E-07 Ang^2
  Cartesian  position =   1.30678644    4.26118735    3.81980470  Ang
  Fractional position =   0.24296485    0.78303301    0.49997444
Atom 17(O2):
  Mass     =  0.2657E-25 kg
  bbar     =  0.5803E-04 Ang
  sigma_inc     =  0.2987E-11 Ang^2
  Sigma_coh     =  0.4232E-07 Ang^2
  Cartesian  position =   1.30678644    4.26118735    0.00019530  Ang
  Fractional position =   0.24296485    0.78303301    0.00002556
Atom 18(O2):
  Mass     =  0.2657E-25 kg
  bbar     =  0.5803E-04 Ang
  sigma_inc     =  0.2987E-11 Ang^2
  Sigma_coh     =  0.4232E-07 Ang^2
  Cartesian  position =   3.99603644    4.26092933    7.63980470  Ang
  Fractional position =   0.74296485    0.78298560    0.99997444
Atom 19(O2):
  Mass     =  0.2657E-25 kg
  bbar     =  0.5803E-04 Ang
  sigma_inc     =  0.2987E-11 Ang^2
  Sigma_coh     =  0.4232E-07 Ang^2
  Cartesian  position =   1.30704235    1.54023735    3.81980470  Ang
  Fractional position =   0.24301243    0.28303301    0.49997444
Atom 20(O2):
  Mass     =  0.2657E-25 kg
  bbar     =  0.5803E-04 Ang
  sigma_inc     =  0.2987E-11 Ang^2
  Sigma_coh     =  0.4232E-07 Ang^2
  Cartesian  position =   3.99629235    1.53997933    3.82019530  Ang
  Fractional position =   0.74301243    0.28298560    0.50002556
--------------------------------------------------------------------------------
  Start of PDF calculation
--------------------------------------------------------------------------------

  PDF information:

  Maximum radius        =  6.000 Ang
  Number density        =  0.089 Ang(^-3)
  (Sum{c_i bbar_i} )^2  =  0.1403E-08

  Using primitive cell parameters   5.3785   5.4419   7.6400
  Testing primitive vectors with x,y,z=-(n+1) to n, n=    2
[width output suppressed by keyword nowidth]
  PDF statistics:

  Maximum width^2  was  0.2466E-01 Ang^2
  Number of pairs      1480
  Angular frequency range used:
   0.212015E+14 to  0.160263E+15 rad/s 
   0.337432E+01 to  0.255066E+02 THz   

  PDF output being written to example46_CaTio3.pdfs
--------------------------------------------------------------------------------
  End of PDF calculation
--------------------------------------------------------------------------------

--------------------------------------------------------------------------------
  Phonon properties (per mole of unit cells): Temperature =      0.000 K
--------------------------------------------------------------------------------
  Zero point energy            =        1.452452 eV
--------------------------------------------------------------------------------

  Phonon density of states : 

--------------------------------------------------------------------------------
 Frequency (cm-1) Density of States                                             
--------------------------------------------------------------------------------
    0.00000 |                                                              0.000
   13.29387 |                                                              0.000
   26.58775 |                                                              0.000
   39.88162 |                                                              0.000
   53.17549 |                                                              0.000
   66.46937 |                                                              0.000
   79.76324 |                                                              0.000
   93.05712 |                                                              0.000
  106.35099 |************                                                  0.017
  119.64486 |************                                                  0.017
  132.93874 |************************                                      0.033
  146.23261 |************************************************************  0.083
  159.52648 |************************                                      0.033
  172.82036 |************************************************************  0.083
  186.11423 |************                                                  0.017
  199.40810 |************************************                          0.050
  212.70198 |                                                              0.000
  225.99585 |************                                                  0.017
  239.28972 |                                                              0.000
  252.58360 |************************************                          0.050
  265.87747 |                                                              0.000
  279.17135 |************************                                      0.033
  292.46522 |************************                                      0.033
  305.75909 |************                                                  0.017
  319.05297 |************                                                  0.017
  332.34684 |                                                              0.000
  345.64071 |                                                              0.000
  358.93459 |************                                                  0.017
  372.22846 |************                                                  0.017
  385.52233 |************                                                  0.017
  398.81621 |************************************************              0.067
  412.11008 |************                                                  0.017
  425.40396 |                                                              0.000
  438.69783 |************                                                  0.017
  451.99170 |************************                                      0.033
  465.28558 |                                                              0.000
  478.57945 |                                                              0.000
  491.87332 |                                                              0.000
  505.16720 |************                                                  0.017
  518.46107 |************                                                  0.017
  531.75494 |                                                              0.000
  545.04882 |                                                              0.000
  558.34269 |************************                                      0.033
  571.63656 |                                                              0.000
  584.93044 |                                                              0.000
  598.22431 |************************************                          0.050
  611.51819 |************                                                  0.017
  624.81206 |                                                              0.000
  638.10593 |************                                                  0.017
  651.39981 |************************                                      0.033
  664.69368 |                                                              0.000
  677.98755 |                                                              0.000
  691.28143 |                                                              0.000
  704.57530 |************************                                      0.033
  717.86917 |                                                              0.000
  731.16305 |************************                                      0.033
  744.45692 |                                                              0.000
  757.75080 |                                                              0.000
  771.04467 |                                                              0.000
  784.33854 |                                                              0.000
  797.63242 |                                                              0.000
  810.92629 |************                                                  0.017
  824.22016 |************************                                      0.033
  837.51404 |************                                                  0.017
--------------------------------------------------------------------------------



  Time to end of optimisation =       4.1007 seconds


  Peak dynamic memory used =       1.20 MB 


  Timing analysis for GULP :

--------------------------------------------------------------------------------
  Task / Subroutine                                          Time (Seconds)
--------------------------------------------------------------------------------
  Calculation of reciprocal space energy and derivatives          1.0354
  Calculation of real space energy and derivatives                2.5531
  Calculation of phonons                                          0.8594
  Calculation and manipulation of Hessian matrix                  0.0606
  Calculation of matrix inversion                                 0.0098
  Symmetry generation of equivalent positions                     0.0010
  Global summation overhead                                       0.0015
--------------------------------------------------------------------------------
  Total CPU time                                                  4.1008
--------------------------------------------------------------------------------


  Job Finished at 15:36.20  4th July       2018                               

