********************************************************************************
*                       GENERAL UTILITY LATTICE PROGRAM                        *
*                                 Julian Gale                                  *
*                       Curtin Institute for Computation                       *
*                           Department of Chemistry                            *
*                    Curtin University, Western Australia                      *
********************************************************************************
* Version = 5.1.0 * Last modified =   4th July 2018                            *
********************************************************************************
*  optimise     - perform optimisation run                                     *
*  conv         - constant volume calculation                                  *
********************************************************************************

  Job Started  at 15:36.07  4th July       2018                               

  Number of CPUs =     1

  Host name      = M-A0010516-S                            


  Total number of configurations input =      1

********************************************************************************
*  Input for Configuration =   1                                               *
********************************************************************************

  Formula = Al12O18                                                     

  Number of irreducible atoms/shells =      30


  Total number atoms/shells =      30

  Dimensionality = 2               :  Surface



  Surface Cartesian vectors (Angstroms) :

        4.900000    0.000000    0.000000
       -2.450000    4.243524    0.000000

  Surface cell parameters (Angstroms/Degrees):

  a =       4.9000    alpha = 120.0000
  b =       4.9000

  Initial surface area   =     20.793270 Angs**2

  Initial surface dipole =     -0.000004 e.Angs

  Electric field applied   =      2.500000 eV/Ang.e
  Electric field direction =      0.000000 a 
                                  0.000000 b 
                                  1.000000 z 

  Temperature of configuration =  0.000     K 

  Mixed fractional/Cartesian coordinates of surface :

--------------------------------------------------------------------------------
   No.  Atomic       x           y          z         Charge      Occupancy
        Label      (Frac)      (Frac)     (Angs)        (e)         (Frac)  
--------------------------------------------------------------------------------
      1 Al    c    0.000000 *  0.000000 *   14.0879 *   3.00000    1.000000    
      2 O     c    0.293691 *  0.986707 *   12.6689 *  -2.00000    1.000000    
      3 O     c    0.013294 *  0.306984 *   12.6689 *  -2.00000    1.000000    
      4 O     c    0.693012 *  0.706307 *   12.6689 *  -2.00000    1.000000    
      5 O     c    0.037101 *  0.668916 *   14.8712 *  -2.00000    1.000000    
      6 O     c    0.331083 *  0.368184 *   14.8712 *  -2.00000    1.000000    
      7 O     c    0.631815 *  0.962899 *   14.8712 *  -2.00000    1.000000    
      8 Al    c    0.999997 *  0.999999 *   11.4131 *   3.00000    1.000000    
      9 Al    c    0.666667 *  0.333333 *   11.6897 *   3.00000    1.000000    
     10 Al    c    0.333333 *  0.666667 *   13.5241 *   3.00000    1.000000    
     11 Al    c    0.666667 *  0.333333 *   15.6219 *   3.00000    1.000000    
     12 Al    c    0.333333    0.666667     16.2675     3.00000    1.000000    
     13 O     c    0.339293 *  0.333113 *   10.6674 *  -2.00000    1.000000    
     14 O     c    0.666874 *  0.006180 *   10.6675 *  -2.00000    1.000000    
     15 O     c    0.993808 *  0.660688 *   10.6675 *  -2.00000    1.000000    
     16 O     c    0.962900 *  0.331083 *   17.0181 *  -2.00000    1.000000    
     17 O     c    0.668917 *  0.631815 *   17.0181 *  -2.00000    1.000000    
     18 O     c    0.368186 *  0.037101 *   17.0181 *  -2.00000    1.000000    
     19 Al    c    0.666667 *  0.333333 *   21.4798 *   3.00000    1.000000    
     20 Al    c    0.333333 *  0.666667 *   10.4096 *   3.00000    1.000000    
     21 Al    c    0.000001 *  0.999999 *   17.8015 *   3.00000    1.000000    
     22 Al    c    0.666667 *  0.333333 *   18.3653 *   3.00000    1.000000    
     23 O     c    0.660708 *  0.666886 *   21.2219 *  -2.00000    1.000000    
     24 O     c    0.333127 *  0.993820 *   21.2219 *  -2.00000    1.000000    
     25 O     c    0.006193 *  0.339312 *   21.2218 *  -2.00000    1.000000    
     26 O     c    0.706309 *  0.013292 *   19.2205 *  -2.00000    1.000000    
     27 O     c    0.986707 *  0.693016 *   19.2205 *  -2.00000    1.000000    
     28 O     c    0.306988 *  0.293692 *   19.2205 *  -2.00000    1.000000    
     29 Al    c    0.000004 *  0.000000 *   20.4763 *   3.00000    1.000000    
     30 Al    c    0.333333 *  0.666667 *   20.1997 *   3.00000    1.000000    
--------------------------------------------------------------------------------



********************************************************************************
*  General input information                                                   *
********************************************************************************

  Species output for all configurations : 

--------------------------------------------------------------------------------
  Species    Type    Atomic    Atomic    Charge       Radii (Angs)     Library
                     Number     Mass       (e)     Cova   Ionic  VDW   Symbol
--------------------------------------------------------------------------------
    Al       Core       13      26.98   3.000000   1.350  0.000  2.050          
    O        Core        8      16.00  -2.000000   0.730  0.000  1.360          
--------------------------------------------------------------------------------


  Lattice summation method               =    Ewald          (3-D)
                                         =    Parry          (2-D)
                                         =    Saunders et al (1-D)
  Accuracy factor for lattice sums       =   12.000


  Time limit = Infinity

  Maximum range for interatomic potentials =    100000.000000 Angstroms

  General interatomic potentials :

--------------------------------------------------------------------------------
Atom  Types   Potential      Parameter       Value         Units   Cutoffs(Ang)
  1     2                                                            Min /  Max 
--------------------------------------------------------------------------------
O    c Al   c Buckingham    Buckingham A     2409.5050    eV        0.000 10.000
                            Buckingham rho  0.26490000    Ang       
                            Buckingham C     0.0000000    eV*Ang^6  
--------------------------------------------------------------------------------
O    c O    c Buckingham    Buckingham A     25.410000    eV        0.000 12.000
                            Buckingham rho  0.69370000    Ang       
                            Buckingham C     32.320000    eV*Ang^6  
--------------------------------------------------------------------------------

********************************************************************************
*  Output for configuration   1                                                *
********************************************************************************


  Components of energy : 

--------------------------------------------------------------------------------
  Interatomic potentials     =         177.37585811 eV    
  Monopole - monopole (real) =        -552.90191229 eV    
  Monopole - monopole (recip)=        -567.97575232 eV    
  Monopole - monopole (total)=       -1120.87766461 eV    
--------------------------------------------------------------------------------
  Total lattice energy       =        -943.50180650 eV    
--------------------------------------------------------------------------------
  Total lattice energy       =          -91033.5016 kJ/(mole unit cells)
--------------------------------------------------------------------------------


  Number of variables =       87

  Maximum number of calculations  =          1000
  Maximum Hessian update interval =            10
  Maximum step size               =  10.000000000
  Maximum parameter tolerance     =   0.000010000
  Maximum function  tolerance     =   0.000010000
  Maximum gradient  tolerance     =   0.001000000
  Maximum gradient  component     =   0.010000000

  Symmetry not applied to optimisation

  Newton-Raphson optimiser to be used

  BFGS hessian update to be used

  Lower half triangular hessian to be used

  Dumpfile to be written after every cycle

  Start of surface optimisation :

  Cycle:      0 Energy:      -943.501806  Gnorm:      0.376098  CPU:    0.013
  ** Hessian calculated **
  Cycle:      1 Energy:      -948.291929  Gnorm:      0.056533  CPU:    0.024
  Cycle:      2 Energy:      -948.358312  Gnorm:      0.019660  CPU:    0.034
  Cycle:      3 Energy:      -948.377983  Gnorm:      0.005589  CPU:    0.043
  Cycle:      4 Energy:      -948.382258  Gnorm:      0.005742  CPU:    0.052
  Cycle:      5 Energy:      -948.382721  Gnorm:      0.001403  CPU:    0.062
  Cycle:      6 Energy:      -948.382769  Gnorm:      0.000577  CPU:    0.071


  **** Optimisation achieved ****


  Final energy =    -948.38277782 eV
  Final Gnorm  =       0.00037059

  Components of energy : 

--------------------------------------------------------------------------------
  Interatomic potentials     =         178.02817973 eV    
  Monopole - monopole (real) =        -553.08882754 eV    
  Monopole - monopole (recip)=        -563.45256240 eV    
  Monopole - monopole (total)=       -1116.54138994 eV    
  Electric_field*distance    =          -9.86956761 eV    
--------------------------------------------------------------------------------
  Total lattice energy       =        -948.38277782 eV    
--------------------------------------------------------------------------------
  Total lattice energy       =          -91504.4407 kJ/(mole unit cells)
--------------------------------------------------------------------------------

  Final fractional/Cartesian coordinates of atoms :

--------------------------------------------------------------------------------
   No.  Atomic        x           y          z          Radius
        Label       (Frac)      (Frac)     (Angs)       (Angs) 
--------------------------------------------------------------------------------
     1  Al    c     0.999979    0.000029   14.030362    0.000000
     2  O     c     0.292479    0.967538   12.481211    0.000000
     3  O     c     0.032191    0.324673   12.481979    0.000000
     4  O     c     0.674815    0.707157   12.480537    0.000000
     5  O     c     0.035206    0.671168   14.745162    0.000000
     6  O     c     0.328793    0.364076   14.745452    0.000000
     7  O     c     0.635871    0.964683   14.745307    0.000000
     8  Al    c     0.999842    0.999839   11.275142    0.000000
     9  Al    c     0.666488    0.333193   11.522978    0.000000
    10  Al    c     0.333248    0.666587   13.502491    0.000000
    11  Al    c     0.666651    0.333330   15.592777    0.000000
    12  Al    c     0.333333    0.666667   16.267455    0.000000
    13  O     c     0.341205    0.329776   10.579316    0.000000
    14  O     c     0.669926    0.011334   10.579447    0.000000
    15  O     c     0.988427    0.658441   10.579651    0.000000
    16  O     c     0.964386    0.333687   16.908173    0.000000
    17  O     c     0.666297    0.630710   16.908338    0.000000
    18  O     c     0.369268    0.035573   16.908231    0.000000
    19  Al    c     0.666635    0.333298   21.618467    0.000000
    20  Al    c     0.333226    0.666537   10.699088    0.000000
    21  Al    c     0.999993    0.000008   17.765650    0.000000
    22  Al    c     0.666645    0.333317   18.367781    0.000000
    23  O     c     0.660630    0.661232   21.145398    0.000000
    24  O     c     0.338686    0.999373   21.145445    0.000000
    25  O     c     0.000561    0.339275   21.145496    0.000000
    26  O     c     0.708351    0.008666   19.098822    0.000000
    27  O     c     0.991267    0.699621   19.099010    0.000000
    28  O     c     0.300244    0.291553   19.098651    0.000000
    29  Al    c     0.999957    0.999958   20.421394    0.000000
    30  Al    c     0.333286    0.666630   20.169440    0.000000
--------------------------------------------------------------------------------

  Final internal/Cartesian derivatives :

--------------------------------------------------------------------------------
   No.  Atomic          a             b             z           Radius
        Label          (eV)          (eV)       (eV/Angs)      (eV/Angs)
--------------------------------------------------------------------------------
      1 Al    c      -0.002565     -0.004899     -0.001262      0.000000
      2 O     c      -0.003970      0.004767     -0.000278      0.000000
      3 O     c      -0.000002      0.003326     -0.001562      0.000000
      4 O     c       0.009903     -0.001675      0.001090      0.000000
      5 O     c       0.006256     -0.000954      0.002521      0.000000
      6 O     c      -0.004755      0.004355      0.002322      0.000000
      7 O     c      -0.000282     -0.004016      0.002979      0.000000
      8 Al    c      -0.000946     -0.001429      0.000764      0.000000
      9 Al    c       0.000889      0.000508     -0.000223      0.000000
     10 Al    c       0.000697     -0.000346     -0.002784      0.000000
     11 Al    c       0.001658     -0.001607     -0.005398      0.000000
     12 Al    c       0.000000      0.000000      0.000000      0.000000
     13 O     c       0.002779      0.002854     -0.000242      0.000000
     14 O     c      -0.005975      0.000778     -0.000392      0.000000
     15 O     c       0.005984     -0.006206     -0.000738      0.000000
     16 O     c       0.006995     -0.002353      0.002502      0.000000
     17 O     c      -0.005779      0.008821      0.002552      0.000000
     18 O     c      -0.002450     -0.007218      0.002284      0.000000
     19 Al    c       0.003026     -0.001199     -0.001134      0.000000
     20 Al    c      -0.007330      0.003491      0.002039      0.000000
     21 Al    c       0.000911      0.005812      0.000713      0.000000
     22 Al    c       0.000646      0.001040     -0.000209      0.000000
     23 O     c       0.002748     -0.004404      0.000300      0.000000
     24 O     c       0.001682      0.003858      0.000466      0.000000
     25 O     c      -0.005385      0.001297      0.000642      0.000000
     26 O     c       0.003154     -0.004161     -0.000368      0.000000
     27 O     c      -0.000066     -0.001984      0.000045      0.000000
     28 O     c      -0.008914      0.000689     -0.001247      0.000000
     29 Al    c       0.000449      0.000775      0.000926      0.000000
     30 Al    c       0.002084     -0.002158     -0.000403      0.000000
--------------------------------------------------------------------------------
  Maximum abs         0.009903      0.008821      0.005398      0.000000
--------------------------------------------------------------------------------


  Time to end of optimisation =       0.0825 seconds


  Peak dynamic memory used =       0.77 MB 


  Timing analysis for GULP :

--------------------------------------------------------------------------------
  Task / Subroutine                                          Time (Seconds)
--------------------------------------------------------------------------------
  Calculation of reciprocal space energy and derivatives          0.0195
  Calculation of real space energy and derivatives                0.0507
  Calculation of matrix inversion                                 0.0002
--------------------------------------------------------------------------------
  Total CPU time                                                  0.0826
--------------------------------------------------------------------------------


  Dump file written as example38.grs


  Job Finished at 15:36.07  4th July       2018                               

