********************************************************************************
*                       GENERAL UTILITY LATTICE PROGRAM                        *
*                                 Julian Gale                                  *
*                       Curtin Institute for Computation                       *
*                           Department of Chemistry                            *
*                    Curtin University, Western Australia                      *
********************************************************************************
* Version = 5.1.0 * Last modified =   4th July 2018                            *
********************************************************************************
*  optimise     - perform optimisation run                                     *
*  conp         - constant pressure calculation                                *
*  property     - calculate properties for final geometry                      *
********************************************************************************
* alumina test file                                                            *
********************************************************************************


  Job Started  at 15:36.02  4th July       2018                               

  Number of CPUs =     1

  Host name      = M-A0010516-S                            


  Total number of configurations input =      3

********************************************************************************
*  Input for Configuration =   1                                               *
********************************************************************************

  Formula = Al4O6                                                       

  Number of irreducible atoms/shells =       4


  Total number atoms/shells =      20

  Dimensionality = 3               :  Bulk   


  Symmetry :

  Crystal family                   :  Hexagonal   
  Crystal class  (Groth - 1921)    :  Ditrigonal Scalenohedral             

  Space group (centrosymmetric)    :  R -3 C          

  Patterson group                  :  R -3 m   

  Cartesian lattice vectors (Angstroms) :

        2.380100    1.374151    4.331100
       -2.380100    1.374151    4.331100
        0.000000   -2.748303    4.331100

  Primitive cell parameters :            Full cell parameters :

  a =   5.1295    alpha =  55.2915       a =   4.7602    alpha =  90.0000
  b =   5.1295    beta  =  55.2915       b =   4.7602    beta  =  90.0000
  c =   5.1295    gamma =  55.2915       c =  12.9933    gamma = 120.0000

  Initial volumes (Angstroms**3):

  Primitive cell =          84.992234    Full cell =         254.976701

  Temperature of configuration =  0.000     K 

  Pressure of configuration =         0.000 GPa 

  Fractional coordinates of asymmetric unit :

--------------------------------------------------------------------------------
   No.  Atomic       x           y          z         Charge      Occupancy
        Label      (Frac)      (Frac)     (Frac)        (e)         (Frac)  
--------------------------------------------------------------------------------
      1 Al    c    0.000000    0.000000    0.352160 *   0.04300    1.000000    
      2 O     c    0.306240 *  0.000000    0.250000     0.51300    1.000000    
      3 Al    s    0.000000    0.000000    0.352160 *   2.95700    1.000000    
      4 O     s    0.306240 *  0.000000    0.250000    -2.51300    1.000000    
--------------------------------------------------------------------------------


  Constraints : 

--------------------------------------------------------------------------------
  Constraint no.      Unconstrained     Constrained    Coefficient    Offset
                         Variable         Variable
--------------------------------------------------------------------------------
           1              Strain 1        Strain 2       1.00000      0.0000
--------------------------------------------------------------------------------


********************************************************************************
*  Input for Configuration =   2                                               *
********************************************************************************

  Formula = Al4O6                                                       

  Number of irreducible atoms/shells =       4


  Total number atoms/shells =      20

  Dimensionality = 3               :  Bulk   


  Symmetry :

  Crystal family                   :  Hexagonal   
  Crystal class  (Groth - 1921)    :  Ditrigonal Scalenohedral             

  Space group (centrosymmetric)    :  R -3 C          

  Patterson group                  :  R -3 m   

  Cartesian lattice vectors (Angstroms) :

        2.380100    1.374151    4.331100
       -2.380100    1.374151    4.331100
        0.000000   -2.748303    4.331100

  Primitive cell parameters :            Full cell parameters :

  a =   5.1295    alpha =  55.2915       a =   4.7602    alpha =  90.0000
  b =   5.1295    beta  =  55.2915       b =   4.7602    beta  =  90.0000
  c =   5.1295    gamma =  55.2915       c =  12.9933    gamma = 120.0000

  Initial volumes (Angstroms**3):

  Primitive cell =          84.992234    Full cell =         254.976701

  Temperature of configuration =  0.000     K 

  Pressure of configuration =        10.000 GPa 

  Fractional coordinates of asymmetric unit :

--------------------------------------------------------------------------------
   No.  Atomic       x           y          z         Charge      Occupancy
        Label      (Frac)      (Frac)     (Frac)        (e)         (Frac)  
--------------------------------------------------------------------------------
      1 Al    c    0.000000    0.000000    0.352160 *   0.04300    1.000000    
      2 O     c    0.306240 *  0.000000    0.250000     0.51300    1.000000    
      3 Al    s    0.000000    0.000000    0.352160 *   2.95700    1.000000    
      4 O     s    0.306240 *  0.000000    0.250000    -2.51300    1.000000    
--------------------------------------------------------------------------------


  Constraints : 

--------------------------------------------------------------------------------
  Constraint no.      Unconstrained     Constrained    Coefficient    Offset
                         Variable         Variable
--------------------------------------------------------------------------------
           1              Strain 1        Strain 2       1.00000      0.0000
--------------------------------------------------------------------------------


********************************************************************************
*  Input for Configuration =   3                                               *
********************************************************************************

  Formula = Al4O6                                                       

  Number of irreducible atoms/shells =       4


  Total number atoms/shells =      20

  Dimensionality = 3               :  Bulk   


  Symmetry :

  Crystal family                   :  Hexagonal   
  Crystal class  (Groth - 1921)    :  Ditrigonal Scalenohedral             

  Space group (centrosymmetric)    :  R -3 C          

  Patterson group                  :  R -3 m   

  Cartesian lattice vectors (Angstroms) :

        2.380100    1.374151    4.331100
       -2.380100    1.374151    4.331100
        0.000000   -2.748303    4.331100

  Primitive cell parameters :            Full cell parameters :

  a =   5.1295    alpha =  55.2915       a =   4.7602    alpha =  90.0000
  b =   5.1295    beta  =  55.2915       b =   4.7602    beta  =  90.0000
  c =   5.1295    gamma =  55.2915       c =  12.9933    gamma = 120.0000

  Initial volumes (Angstroms**3):

  Primitive cell =          84.992234    Full cell =         254.976701

  Temperature of configuration =  0.000     K 

  Pressure of configuration =        20.000 GPa 

  Fractional coordinates of asymmetric unit :

--------------------------------------------------------------------------------
   No.  Atomic       x           y          z         Charge      Occupancy
        Label      (Frac)      (Frac)     (Frac)        (e)         (Frac)  
--------------------------------------------------------------------------------
      1 Al    c    0.000000    0.000000    0.352160 *   0.04300    1.000000    
      2 O     c    0.306240 *  0.000000    0.250000     0.51300    1.000000    
      3 Al    s    0.000000    0.000000    0.352160 *   2.95700    1.000000    
      4 O     s    0.306240 *  0.000000    0.250000    -2.51300    1.000000    
--------------------------------------------------------------------------------


  Constraints : 

--------------------------------------------------------------------------------
  Constraint no.      Unconstrained     Constrained    Coefficient    Offset
                         Variable         Variable
--------------------------------------------------------------------------------
           1              Strain 1        Strain 2       1.00000      0.0000
--------------------------------------------------------------------------------


********************************************************************************
*  General input information                                                   *
********************************************************************************

  Species output for all configurations : 

--------------------------------------------------------------------------------
  Species    Type    Atomic    Atomic    Charge       Radii (Angs)     Library
                     Number     Mass       (e)     Cova   Ionic  VDW   Symbol
--------------------------------------------------------------------------------
    Al       Core       13      26.98   0.043000   1.350  0.000  2.050          
    Al       Shell      13       0.00   2.957000   1.350  0.000  2.050          
    O        Core        8      16.00   0.513000   0.730  0.000  1.360          
    O        Shell       8       0.00  -2.513000   0.730  0.000  1.360          
--------------------------------------------------------------------------------


  Lattice summation method               =    Ewald          (3-D)
                                         =    Parry          (2-D)
                                         =    Saunders et al (1-D)
  Accuracy factor for lattice sums       =   12.000


  Time limit = Infinity

  Maximum range for interatomic potentials =    100000.000000 Angstroms

  General interatomic potentials :

--------------------------------------------------------------------------------
Atom  Types   Potential      Parameter       Value         Units   Cutoffs(Ang)
  1     2                                                            Min /  Max 
--------------------------------------------------------------------------------
O    s Al   s Buckingham    Buckingham A     2409.5050    eV        0.000 10.000
                            Buckingham rho  0.26490000    Ang       
                            Buckingham C     0.0000000    eV*Ang^6  
--------------------------------------------------------------------------------
O    s O    s Buckingham    Buckingham A     25.410000    eV        0.000 12.000
                            Buckingham rho  0.69370000    Ang       
                            Buckingham C     32.320000    eV*Ang^6  
--------------------------------------------------------------------------------
Al   c Al   s Spring (c-s)  Spring k 2       403.98000    eV*Ang^-2 0.000  0.800
                            Spring k 4       0.0000000    eV*Ang^-4 
--------------------------------------------------------------------------------
O    c O    s Spring (c-s)  Spring k 2       20.530000    eV*Ang^-2 0.000  0.800
                            Spring k 4       0.0000000    eV*Ang^-4 
--------------------------------------------------------------------------------

********************************************************************************
*  Output for configuration   1                                                *
********************************************************************************


  Components of energy : 

--------------------------------------------------------------------------------
  Interatomic potentials     =          63.08516927 eV    
  Monopole - monopole (real) =        -126.96762275 eV    
  Monopole - monopole (recip)=        -250.81566546 eV    
  Monopole - monopole (total)=        -377.78328821 eV    
--------------------------------------------------------------------------------
  Total lattice energy : 
    Primitive unit cell      =        -314.69811894 eV    
    Non-primitive unit cell  =        -944.09435681 eV    
--------------------------------------------------------------------------------
  Total lattice energy (in kJmol-1): 
    Primitive unit cell      =          -30363.5579 kJ/(mole unit cells)
    Non-primitive unit cell  =          -91090.6736 kJ/(mole unit cells)
--------------------------------------------------------------------------------


  Number of variables =        6

  Maximum number of calculations  =          1000
  Maximum Hessian update interval =            10
  Maximum step size               =  10.000000000
  Maximum parameter tolerance     =   0.000010000
  Maximum function  tolerance     =   0.000010000
  Maximum gradient  tolerance     =   0.001000000
  Maximum gradient  component     =   0.010000000

  Symmetry constrained optimisation

  Symmetry used for second derivatives

  Cell parameters to be optimised using strains

  Newton-Raphson optimiser to be used

  BFGS hessian update to be used

  Lower half triangular hessian to be used

  Dumpfile to be written after every cycle

  Start of bulk optimisation :

  Cycle:      0 Energy:      -314.698119  Gnorm:     19.420558  CPU:    0.014
  ** Hessian calculated **
  Cycle:      1 Energy:      -315.172727  Gnorm:      0.362449  CPU:    0.025
  Cycle:      2 Energy:      -315.173273  Gnorm:      0.054320  CPU:    0.034
  Cycle:      3 Energy:      -315.173281  Gnorm:      0.002139  CPU:    0.045


  **** Optimisation achieved ****


  Final energy =    -315.17328097 eV
  Final Gnorm  =       0.00010185

  Components of energy : 

--------------------------------------------------------------------------------
  Interatomic potentials     =          59.49166739 eV    
  Monopole - monopole (real) =         -65.58577249 eV    
  Monopole - monopole (recip)=        -309.07917586 eV    
  Monopole - monopole (total)=        -374.66494836 eV    
--------------------------------------------------------------------------------
  Total lattice energy : 
    Primitive unit cell      =        -315.17328097 eV    
    Non-primitive unit cell  =        -945.51984290 eV    
--------------------------------------------------------------------------------
  Total lattice energy (in kJmol-1): 
    Primitive unit cell      =          -30409.4037 kJ/(mole unit cells)
    Non-primitive unit cell  =          -91228.2112 kJ/(mole unit cells)
--------------------------------------------------------------------------------

  Final asymmetric unit coordinates :

--------------------------------------------------------------------------------
   No.  Atomic        x           y           z         Radius
        Label       (Frac)      (Frac)      (Frac)       (Angs) 
--------------------------------------------------------------------------------
     1  Al    c     0.000000    0.000000    0.356233    0.000000
     2  O     c     0.295773    0.000000    0.250000    0.000000
     3  Al    s     0.000000    0.000000    0.356234    0.000000
     4  O     s     0.297426    0.000000    0.250000    0.000000
--------------------------------------------------------------------------------

  Final Cartesian lattice vectors (Angstroms) :

        2.410027    1.391430    4.337219
       -2.410027    1.391430    4.337219
        0.000000   -2.782860    4.337219


  Final cell parameters and derivatives :

--------------------------------------------------------------------------------
       a            5.153230 Angstrom     dE/de1(xx)     0.000008 eV/strain
       b            5.153230 Angstrom     dE/de2(yy)     0.000000 eV/strain
       c            5.153230 Angstrom     dE/de3(zz)     0.000019 eV/strain
       alpha       55.766721 Degrees      dE/de4(yz)     0.000000 eV/strain
       beta        55.766721 Degrees      dE/de5(xz)     0.000000 eV/strain
       gamma       55.766721 Degrees      dE/de6(xy)     0.000000 eV/strain
--------------------------------------------------------------------------------

  Primitive cell volume =            87.266159 Angs**3

  Density of cell =      3.880342 g/cm**3

  Non-primitive lattice parameters :

  a    =     4.820054  b   =     4.820054  c    =    13.011657
  alpha=    90.000000  beta=    90.000000  gamma=   120.000000

  Non-primitive cell volume =           261.798477 Angs**3


  Final internal derivatives :

--------------------------------------------------------------------------------
   No.  Atomic          a             b             c           Radius
        Label          (eV)          (eV)          (eV)        (eV/Angs)
--------------------------------------------------------------------------------
      1 Al    c       0.000000      0.000000      0.000002      0.000000
      2 O     c      -0.000240      0.000000      0.000000      0.000000
      3 Al    s       0.000000      0.000000     -0.000493      0.000000
      4 O     s       0.000268      0.000000      0.000000      0.000000
--------------------------------------------------------------------------------
  Maximum abs         0.000268      0.000000      0.000493      0.000000
--------------------------------------------------------------------------------


  Born effective charge tensors : 

-------------------------------------------------------------------------------
  Atom             x           y             z
-------------------------------------------------------------------------------
    1 Al    x       2.4472     -0.3703     -0.0000
            y       0.3703      2.4472     -0.0000
            z      -0.0000     -0.0000      2.7488
-------------------------------------------------------------------------------
    2 O     x      -1.7494      0.0000     -0.0000
            y       0.0000     -1.5135      0.2579
            z      -0.0000      0.3340     -1.8325
-------------------------------------------------------------------------------




  Elastic Constant Matrix: (Units=GPa)

-------------------------------------------------------------------------------
  Indices      1         2         3         4         5         6    
-------------------------------------------------------------------------------
       1    607.5122  322.9448  182.3240   44.5915    0.0000    0.0000
       2    322.9448  607.5122  182.3240  -44.5915    0.0000    0.0000
       3    182.3240  182.3240  606.3492   -0.0000    0.0000    0.0000
       4     44.5915  -44.5915   -0.0000   95.6296    0.0000    0.0000
       5      0.0000    0.0000    0.0000    0.0000   95.6296   44.5915
       6      0.0000    0.0000    0.0000    0.0000   44.5915  142.2837
-------------------------------------------------------------------------------

  Elastic Constant Tensor Eigenvalues: (Units=GPa)

-------------------------------------------------------------------------------
     1 =    68.6321     2 =    76.5151     3 =   169.2812
     4 =   303.6819     5 =   463.8615     6 =  1072.9446
-------------------------------------------------------------------------------


  Elastic Compliance Matrix: (Units=1/GPa)

-------------------------------------------------------------------------------
  Indices      1         2         3         4         5         6    
-------------------------------------------------------------------------------
       1    0.002667 -0.001449 -0.000366 -0.001919  0.000000 -0.000000
       2   -0.001449  0.002667 -0.000366  0.001919 -0.000000  0.000000
       3   -0.000366 -0.000366  0.001870 -0.000000  0.000000 -0.000000
       4   -0.001919  0.001919 -0.000000  0.012247 -0.000000  0.000000
       5    0.000000 -0.000000  0.000000 -0.000000  0.012247 -0.003838
       6   -0.000000  0.000000 -0.000000  0.000000 -0.003838  0.008231
-------------------------------------------------------------------------------

  Mechanical properties :

-------------------------------------------------------------------------------
  Convention :                    Reuss         Voigt         Hill
-------------------------------------------------------------------------------
  Bulk  Modulus (GPa)     =     352.01363     355.17324     353.59344
  Shear Modulus (GPa)     =     110.52820     142.29397     126.41109
-------------------------------------------------------------------------------
  Velocity S-wave (km/s)  =       5.33705       6.05562       5.70765
  Velocity P-wave (km/s)  =      11.34443      11.85012      11.60003
-------------------------------------------------------------------------------
  Compressibility (1/GPa) =    0.00284080
-------------------------------------------------------------------------------
  Stress axis :                     x             y             z
-------------------------------------------------------------------------------
  Youngs Moduli (GPa)     =     374.96427     374.96427     534.89604
-------------------------------------------------------------------------------
  Poissons Ratio (x)      =                     0.54318       0.19595
  Poissons Ratio (y)      =       0.54318                     0.19595
  Poissons Ratio (z)      =       0.13736       0.13736
-------------------------------------------------------------------------------


  Piezoelectric Strain Matrix: (Units=C/m**2)

-------------------------------------------------------------------------------
  Indices      1         2         3         4         5         6    
-------------------------------------------------------------------------------
       x     0.00000  -0.00000  -0.00000   0.00000   0.00000  -0.00000
       y    -0.00000   0.00000  -0.00000   0.00000  -0.00000  -0.00000
       z    -0.00000   0.00000   0.00000   0.00000   0.00000   0.00000
-------------------------------------------------------------------------------


  Piezoelectric Stress Matrix: (Units=10**-11 C/N)

-------------------------------------------------------------------------------
  Indices      1         2         3         4         5         6    
-------------------------------------------------------------------------------
       x     0.00000  -0.00000  -0.00000   0.00000   0.00000  -0.00000
       y    -0.00000   0.00000   0.00000   0.00000   0.00000  -0.00000
       z    -0.00000   0.00000   0.00000   0.00000   0.00000  -0.00000
-------------------------------------------------------------------------------


  Static dielectric constant tensor : 

-------------------------------------------------------------------------------
              x         y         z
-------------------------------------------------------------------------------
       x    11.29307  -0.00000   0.00000
       y    -0.00000  11.29307  -0.00000
       z     0.00000  -0.00000  16.36464
--------------------------------------------------------------------------------

  High frequency dielectric constant tensor : 

-------------------------------------------------------------------------------
              x         y         z
-------------------------------------------------------------------------------
       x     5.63011  -0.00000   0.00000
       y    -0.00000   5.63011  -0.00000
       z     0.00000  -0.00000   6.08934
-------------------------------------------------------------------------------

  Static refractive indices : 

-------------------------------------------------------------------------------
    1 =    3.36052      2 =    3.36052      3 =    4.04532
-------------------------------------------------------------------------------

  High frequency refractive indices : 

-------------------------------------------------------------------------------
    1 =    2.37278      2 =    2.37278      3 =    2.46766
-------------------------------------------------------------------------------


  Time to end of optimisation =       0.0681 seconds


********************************************************************************
*  Output for configuration   2                                                *
********************************************************************************


  Components of enthalpy : 

--------------------------------------------------------------------------------
  Interatomic potentials     =          63.08516927 eV    
  Monopole - monopole (real) =        -126.96762275 eV    
  Monopole - monopole (recip)=        -250.81566546 eV    
  Monopole - monopole (total)=        -377.78328821 eV    
  Pressure*volume            =           5.30475702 eV    
--------------------------------------------------------------------------------
  Total lattice enthalpy : 
    Primitive unit cell      =        -309.39336191 eV    
    Non-primitive unit cell  =        -928.18008574 eV    
--------------------------------------------------------------------------------
  Total lattice enthalpy (in kJmol-1): 
    Primitive unit cell      =          -29851.7299 kJ/(mole unit cells)
    Non-primitive unit cell  =          -89555.1897 kJ/(mole unit cells)
--------------------------------------------------------------------------------


  Number of variables =        6

  Maximum number of calculations  =          1000
  Maximum Hessian update interval =            10
  Maximum step size               =  10.000000000
  Maximum parameter tolerance     =   0.000010000
  Maximum function  tolerance     =   0.000010000
  Maximum gradient  tolerance     =   0.001000000
  Maximum gradient  component     =   0.010000000

  Symmetry constrained optimisation

  Symmetry used for second derivatives

  Cell parameters to be optimised using strains

  Newton-Raphson optimiser to be used

  BFGS hessian update to be used

  Lower half triangular hessian to be used

  Dumpfile to be written after every cycle

  Start of bulk optimisation :

  Cycle:      0 Energy:      -309.393362  Gnorm:     19.306190  CPU:    0.073
  ** Hessian calculated **
  Cycle:      1 Energy:      -309.799854  Gnorm:      0.555717  CPU:    0.082
  Cycle:      2 Energy:      -309.800799  Gnorm:      0.051753  CPU:    0.095
  Cycle:      3 Energy:      -309.800806  Gnorm:      0.003044  CPU:    0.103


  **** Optimisation achieved ****


  Final enthalpy =    -309.80080558 eV
  Final Gnorm  =       0.00009765

  Components of enthalpy : 

--------------------------------------------------------------------------------
  Interatomic potentials     =          62.91216659 eV    
  Monopole - monopole (real) =         -66.13450314 eV    
  Monopole - monopole (recip)=        -311.88006311 eV    
  Monopole - monopole (total)=        -378.01456625 eV    
  Pressure*volume            =           5.30159408 eV    
--------------------------------------------------------------------------------
  Total lattice enthalpy : 
    Primitive unit cell      =        -309.80080558 eV    
    Non-primitive unit cell  =        -929.40241673 eV    
--------------------------------------------------------------------------------
  Total lattice enthalpy (in kJmol-1): 
    Primitive unit cell      =          -29891.0420 kJ/(mole unit cells)
    Non-primitive unit cell  =          -89673.1260 kJ/(mole unit cells)
--------------------------------------------------------------------------------

  Final asymmetric unit coordinates :

--------------------------------------------------------------------------------
   No.  Atomic        x           y           z         Radius
        Label       (Frac)      (Frac)      (Frac)       (Angs) 
--------------------------------------------------------------------------------
     1  Al    c     0.000000    0.000000    0.356538    0.000000
     2  O     c     0.295393    0.000000    0.250000    0.000000
     3  Al    s     0.000000    0.000000    0.356540    0.000000
     4  O     s     0.297355    0.000000    0.250000    0.000000
--------------------------------------------------------------------------------

  Final Cartesian lattice vectors (Angstroms) :

        2.390740    1.380295    4.290074
       -2.390740    1.380295    4.290074
        0.000000   -2.760589    4.290074


  Final cell parameters and derivatives :

--------------------------------------------------------------------------------
       a            5.101528 Angstrom     dE/de1(xx)     0.000102 eV/strain
       b            5.101528 Angstrom     dE/de2(yy)     0.000000 eV/strain
       c            5.101528 Angstrom     dE/de3(zz)    -0.000060 eV/strain
       alpha       55.891090 Degrees      dE/de4(yz)     0.000000 eV/strain
       beta        55.891090 Degrees      dE/de5(xz)     0.000000 eV/strain
       gamma       55.891090 Degrees      dE/de6(xy)     0.000000 eV/strain
--------------------------------------------------------------------------------

  Primitive cell volume =            84.941557 Angs**3

  Density of cell =      3.986535 g/cm**3

  Non-primitive lattice parameters :

  a    =     4.781480  b   =     4.781480  c    =    12.870223
  alpha=    90.000000  beta=    90.000000  gamma=   120.000000

  Non-primitive cell volume =           254.824672 Angs**3


  Final internal derivatives :

--------------------------------------------------------------------------------
   No.  Atomic          a             b             c           Radius
        Label          (eV)          (eV)          (eV)        (eV/Angs)
--------------------------------------------------------------------------------
      1 Al    c       0.000000      0.000000     -0.000041      0.000000
      2 O     c      -0.000061      0.000000      0.000000      0.000000
      3 Al    s       0.000000      0.000000      0.000511      0.000000
      4 O     s      -0.000250      0.000000      0.000000      0.000000
--------------------------------------------------------------------------------
  Maximum abs         0.000250      0.000000      0.000511      0.000000
--------------------------------------------------------------------------------


  Born effective charge tensors : 

-------------------------------------------------------------------------------
  Atom             x           y             z
-------------------------------------------------------------------------------
    1 Al    x       2.2512     -0.3204     -0.0000
            y       0.3204      2.2512     -0.0000
            z      -0.0000     -0.0000      2.5425
-------------------------------------------------------------------------------
    2 O     x      -1.6217      0.0000     -0.0000
            y       0.0000     -1.3798      0.1663
            z      -0.0000      0.2422     -1.6950
-------------------------------------------------------------------------------




  Elastic Constant Matrix: (Units=GPa)

-------------------------------------------------------------------------------
  Indices      1         2         3         4         5         6    
-------------------------------------------------------------------------------
       1    659.8289  345.9991  218.0439   48.7030    0.0000    0.0000
       2    345.9991  659.8289  218.0439  -48.7030    0.0000    0.0000
       3    218.0439  218.0439  625.9194    0.0000   -0.0000    0.0000
       4     48.7030  -48.7030    0.0000  117.0059    0.0000    0.0000
       5      0.0000    0.0000   -0.0000    0.0000  117.0059   48.7030
       6      0.0000    0.0000    0.0000    0.0000   48.7030  161.9149
-------------------------------------------------------------------------------

  Elastic Constant Tensor Eigenvalues: (Units=GPa)

-------------------------------------------------------------------------------
     1 =    85.8303     2 =    95.2976     3 =   193.0905
     4 =   335.5381     5 =   453.7012     6 =  1178.0461
-------------------------------------------------------------------------------


  Elastic Compliance Matrix: (Units=1/GPa)

-------------------------------------------------------------------------------
  Indices      1         2         3         4         5         6    
-------------------------------------------------------------------------------
       1    0.002415 -0.001244 -0.000408 -0.001523  0.000000 -0.000000
       2   -0.001244  0.002415 -0.000408  0.001523 -0.000000  0.000000
       3   -0.000408 -0.000408  0.001882 -0.000000  0.000000 -0.000000
       4   -0.001523  0.001523 -0.000000  0.009815 -0.000000  0.000000
       5    0.000000 -0.000000  0.000000 -0.000000  0.009770 -0.002939
       6   -0.000000  0.000000 -0.000000  0.000000 -0.002939  0.007060
-------------------------------------------------------------------------------

  Mechanical properties :

-------------------------------------------------------------------------------
  Convention :                    Reuss         Voigt         Hill
-------------------------------------------------------------------------------
  Bulk  Modulus (GPa)     =     385.77000     389.97231     387.87115
  Shear Modulus (GPa)     =     130.41044     156.75137     143.58091
-------------------------------------------------------------------------------
  Velocity S-wave (km/s)  =       5.71950       6.27058       6.00137
  Velocity P-wave (km/s)  =      11.84843      12.25762      12.05476
-------------------------------------------------------------------------------
  Compressibility (1/GPa) =    0.00259222
-------------------------------------------------------------------------------
  Stress axis :                     x             y             z
-------------------------------------------------------------------------------
  Youngs Moduli (GPa)     =     414.05633     414.05633     531.38407
-------------------------------------------------------------------------------
  Poissons Ratio (x)      =                     0.51511       0.21678
  Poissons Ratio (y)      =       0.51511                     0.21678
  Poissons Ratio (z)      =       0.16892       0.16892
-------------------------------------------------------------------------------


  Piezoelectric Strain Matrix: (Units=C/m**2)

-------------------------------------------------------------------------------
  Indices      1         2         3         4         5         6    
-------------------------------------------------------------------------------
       x    -0.00000   0.00000   0.00000   0.00000   0.00000   0.00000
       y     0.00000   0.00000  -0.00000  -0.00000  -0.00000   0.00000
       z     0.00000  -0.00000   0.00000  -0.00000  -0.00000  -0.00000
-------------------------------------------------------------------------------


  Piezoelectric Stress Matrix: (Units=10**-11 C/N)

-------------------------------------------------------------------------------
  Indices      1         2         3         4         5         6    
-------------------------------------------------------------------------------
       x    -0.00000   0.00000   0.00000   0.00000   0.00000   0.00000
       y    -0.00000   0.00000  -0.00000  -0.00000  -0.00000   0.00000
       z     0.00000  -0.00000   0.00000  -0.00000  -0.00000   0.00000
-------------------------------------------------------------------------------


  Static dielectric constant tensor : 

-------------------------------------------------------------------------------
              x         y         z
-------------------------------------------------------------------------------
       x     9.89242  -0.00000   0.00000
       y    -0.00000   9.89242  -0.00000
       z     0.00000  -0.00000  13.96294
--------------------------------------------------------------------------------

  High frequency dielectric constant tensor : 

-------------------------------------------------------------------------------
              x         y         z
-------------------------------------------------------------------------------
       x     5.50328  -0.00000   0.00000
       y    -0.00000   5.50328  -0.00000
       z     0.00000  -0.00000   5.96634
-------------------------------------------------------------------------------

  Static refractive indices : 

-------------------------------------------------------------------------------
    1 =    3.14522      2 =    3.14522      3 =    3.73670
-------------------------------------------------------------------------------

  High frequency refractive indices : 

-------------------------------------------------------------------------------
    1 =    2.34591      2 =    2.34591      3 =    2.44261
-------------------------------------------------------------------------------


  Time to end of optimisation =       0.1231 seconds


********************************************************************************
*  Output for configuration   3                                                *
********************************************************************************


  Components of enthalpy : 

--------------------------------------------------------------------------------
  Interatomic potentials     =          63.08516927 eV    
  Monopole - monopole (real) =        -126.96762275 eV    
  Monopole - monopole (recip)=        -250.81566546 eV    
  Monopole - monopole (total)=        -377.78328821 eV    
  Pressure*volume            =          10.60951405 eV    
--------------------------------------------------------------------------------
  Total lattice enthalpy : 
    Primitive unit cell      =        -304.08860489 eV    
    Non-primitive unit cell  =        -912.26581466 eV    
--------------------------------------------------------------------------------
  Total lattice enthalpy (in kJmol-1): 
    Primitive unit cell      =          -29339.9020 kJ/(mole unit cells)
    Non-primitive unit cell  =          -88019.7059 kJ/(mole unit cells)
--------------------------------------------------------------------------------


  Number of variables =        6

  Maximum number of calculations  =          1000
  Maximum Hessian update interval =            10
  Maximum step size               =  10.000000000
  Maximum parameter tolerance     =   0.000010000
  Maximum function  tolerance     =   0.000010000
  Maximum gradient  tolerance     =   0.001000000
  Maximum gradient  component     =   0.010000000

  Symmetry constrained optimisation

  Symmetry used for second derivatives

  Cell parameters to be optimised using strains

  Newton-Raphson optimiser to be used

  BFGS hessian update to be used

  Lower half triangular hessian to be used

  Dumpfile to be written after every cycle

  Start of bulk optimisation :

  Cycle:      0 Energy:      -304.088605  Gnorm:     19.393728  CPU:    0.128
  ** Hessian calculated **
  Cycle:      1 Energy:      -304.563835  Gnorm:      0.679302  CPU:    0.137
  Cycle:      2 Energy:      -304.565120  Gnorm:      0.048406  CPU:    0.149
  Cycle:      3 Energy:      -304.565127  Gnorm:      0.002633  CPU:    0.158


  **** Optimisation achieved ****


  Final enthalpy =    -304.56512652 eV
  Final Gnorm  =       0.00005245

  Components of enthalpy : 

--------------------------------------------------------------------------------
  Interatomic potentials     =          66.16962763 eV    
  Monopole - monopole (real) =         -66.62926788 eV    
  Monopole - monopole (recip)=        -314.45131857 eV    
  Monopole - monopole (total)=        -381.08058645 eV    
  Pressure*volume            =          10.34583230 eV    
--------------------------------------------------------------------------------
  Total lattice enthalpy : 
    Primitive unit cell      =        -304.56512652 eV    
    Non-primitive unit cell  =        -913.69537955 eV    
--------------------------------------------------------------------------------
  Total lattice enthalpy (in kJmol-1): 
    Primitive unit cell      =          -29385.8790 kJ/(mole unit cells)
    Non-primitive unit cell  =          -88157.6370 kJ/(mole unit cells)
--------------------------------------------------------------------------------

  Final asymmetric unit coordinates :

--------------------------------------------------------------------------------
   No.  Atomic        x           y           z         Radius
        Label       (Frac)      (Frac)      (Frac)       (Angs) 
--------------------------------------------------------------------------------
     1  Al    c     0.000000    0.000000    0.356833    0.000000
     2  O     c     0.295001    0.000000    0.250000    0.000000
     3  Al    s     0.000000    0.000000    0.356834    0.000000
     4  O     s     0.297254    0.000000    0.250000    0.000000
--------------------------------------------------------------------------------

  Final Cartesian lattice vectors (Angstroms) :

        2.373599    1.370398    4.246626
       -2.373599    1.370398    4.246626
        0.000000   -2.740795    4.246626


  Final cell parameters and derivatives :

--------------------------------------------------------------------------------
       a            5.054285 Angstrom     dE/de1(xx)     0.000166 eV/strain
       b            5.054285 Angstrom     dE/de2(yy)     0.000000 eV/strain
       c            5.054285 Angstrom     dE/de3(zz)     0.000010 eV/strain
       alpha       56.019402 Degrees      dE/de4(yz)     0.000000 eV/strain
       beta        56.019402 Degrees      dE/de5(xz)     0.000000 eV/strain
       gamma       56.019402 Degrees      dE/de6(xy)     0.000000 eV/strain
--------------------------------------------------------------------------------

  Primitive cell volume =            82.879894 Angs**3

  Density of cell =      4.085702 g/cm**3

  Non-primitive lattice parameters :

  a    =     4.747197  b   =     4.747197  c    =    12.739879
  alpha=    90.000000  beta=    90.000000  gamma=   120.000000

  Non-primitive cell volume =           248.639681 Angs**3


  Final internal derivatives :

--------------------------------------------------------------------------------
   No.  Atomic          a             b             c           Radius
        Label          (eV)          (eV)          (eV)        (eV/Angs)
--------------------------------------------------------------------------------
      1 Al    c       0.000000      0.000000     -0.000057      0.000000
      2 O     c      -0.000083      0.000000      0.000000      0.000000
      3 Al    s       0.000000      0.000000      0.000214      0.000000
      4 O     s      -0.000124      0.000000      0.000000      0.000000
--------------------------------------------------------------------------------
  Maximum abs         0.000124      0.000000      0.000214      0.000000
--------------------------------------------------------------------------------


  Born effective charge tensors : 

-------------------------------------------------------------------------------
  Atom             x           y             z
-------------------------------------------------------------------------------
    1 Al    x       2.0838     -0.2755     -0.0000
            y       0.2755      2.0838     -0.0000
            z      -0.0000     -0.0000      2.3715
-------------------------------------------------------------------------------
    2 O     x      -1.5102      0.0000     -0.0000
            y       0.0000     -1.2682      0.0930
            z      -0.0000      0.1664     -1.5810
-------------------------------------------------------------------------------




  Elastic Constant Matrix: (Units=GPa)

-------------------------------------------------------------------------------
  Indices      1         2         3         4         5         6    
-------------------------------------------------------------------------------
       1    705.4802  373.0491  253.3662   50.9491    0.0000    0.0000
       2    373.0491  705.4802  253.3662  -50.9491    0.0000    0.0000
       3    253.3662  253.3662  643.2931    0.0000   -0.0000    0.0000
       4     50.9491  -50.9491    0.0000  134.6883    0.0000    0.0000
       5      0.0000    0.0000   -0.0000    0.0000  134.6883   50.9491
       6      0.0000    0.0000    0.0000    0.0000   50.9491  176.2156
-------------------------------------------------------------------------------

  Elastic Constant Tensor Eigenvalues: (Units=GPa)

-------------------------------------------------------------------------------
     1 =   100.4343     2 =   111.2193     3 =   210.4696
     4 =   355.9001     5 =   441.6899     6 =  1280.1325
-------------------------------------------------------------------------------


  Elastic Compliance Matrix: (Units=1/GPa)

-------------------------------------------------------------------------------
  Indices      1         2         3         4         5         6    
-------------------------------------------------------------------------------
       1    0.002270 -0.001132 -0.000448 -0.001287  0.000000 -0.000000
       2   -0.001132  0.002270 -0.000448  0.001287 -0.000000  0.000000
       3   -0.000448 -0.000448  0.001907 -0.000000  0.000000 -0.000000
       4   -0.001287  0.001287 -0.000000  0.008398 -0.000000  0.000000
       5    0.000000 -0.000000  0.000000 -0.000000  0.008336 -0.002410
       6   -0.000000  0.000000 -0.000000  0.000000 -0.002410  0.006372
-------------------------------------------------------------------------------

  Mechanical properties :

-------------------------------------------------------------------------------
  Convention :                    Reuss         Voigt         Hill
-------------------------------------------------------------------------------
  Bulk  Modulus (GPa)     =     418.31931     423.75738     421.03835
  Shear Modulus (GPa)     =     145.31309     167.41658     156.36483
-------------------------------------------------------------------------------
  Velocity S-wave (km/s)  =       5.96374       6.40127       6.18637
  Velocity P-wave (km/s)  =      12.23960      12.58380      12.41290
-------------------------------------------------------------------------------
  Compressibility (1/GPa) =    0.00239052
-------------------------------------------------------------------------------
  Stress axis :                     x             y             z
-------------------------------------------------------------------------------
  Youngs Moduli (GPa)     =     440.48915     440.48915     524.25244
-------------------------------------------------------------------------------
  Poissons Ratio (x)      =                     0.49885       0.23492
  Poissons Ratio (y)      =       0.49885                     0.23492
  Poissons Ratio (z)      =       0.19738       0.19738
-------------------------------------------------------------------------------


  Piezoelectric Strain Matrix: (Units=C/m**2)

-------------------------------------------------------------------------------
  Indices      1         2         3         4         5         6    
-------------------------------------------------------------------------------
       x    -0.00000   0.00000  -0.00000  -0.00000  -0.00000   0.00000
       y     0.00000  -0.00000  -0.00000  -0.00000  -0.00000  -0.00000
       z    -0.00000   0.00000   0.00000   0.00000   0.00000   0.00000
-------------------------------------------------------------------------------


  Piezoelectric Stress Matrix: (Units=10**-11 C/N)

-------------------------------------------------------------------------------
  Indices      1         2         3         4         5         6    
-------------------------------------------------------------------------------
       x    -0.00000   0.00000  -0.00000  -0.00000  -0.00000   0.00000
       y     0.00000  -0.00000  -0.00000  -0.00000  -0.00000  -0.00000
       z    -0.00000   0.00000   0.00000   0.00000   0.00000   0.00000
-------------------------------------------------------------------------------


  Static dielectric constant tensor : 

-------------------------------------------------------------------------------
              x         y         z
-------------------------------------------------------------------------------
       x     8.95637  -0.00000   0.00000
       y    -0.00000   8.95637  -0.00000
       z     0.00000  -0.00000  12.50268
--------------------------------------------------------------------------------

  High frequency dielectric constant tensor : 

-------------------------------------------------------------------------------
              x         y         z
-------------------------------------------------------------------------------
       x     5.39246  -0.00000   0.00000
       y    -0.00000   5.39246  -0.00000
       z     0.00000  -0.00000   5.86830
-------------------------------------------------------------------------------

  Static refractive indices : 

-------------------------------------------------------------------------------
    1 =    2.99272      2 =    2.99272      3 =    3.53591
-------------------------------------------------------------------------------

  High frequency refractive indices : 

-------------------------------------------------------------------------------
    1 =    2.32217      2 =    2.32217      3 =    2.42246
-------------------------------------------------------------------------------


  Time to end of optimisation =       0.1790 seconds


  Peak dynamic memory used =       0.67 MB 


  Timing analysis for GULP :

--------------------------------------------------------------------------------
  Task / Subroutine                                          Time (Seconds)
--------------------------------------------------------------------------------
  Calculation of reciprocal space energy and derivatives          0.0037
  Calculation of reciprocal space energy using symmetry           0.0061
  Calculation of real space energy and derivatives                0.0359
  Calculation of real space energy using symmetry                 0.1168
  Calculation of matrix inversion                                 0.0001
  Symmetry generation of equivalent positions                     0.0012
--------------------------------------------------------------------------------
  Total CPU time                                                  0.1791
--------------------------------------------------------------------------------


  Dump file written as example26.grs


  Job Finished at 15:36.02  4th July       2018                               

