********************************************************************************
*                       GENERAL UTILITY LATTICE PROGRAM                        *
*                                 Julian Gale                                  *
*                       Curtin Institute for Computation                       *
*                           Department of Chemistry                            *
*                    Curtin University, Western Australia                      *
********************************************************************************
* Version = 5.1.0 * Last modified =  15th August 2018                          *
********************************************************************************
*  gradient     - perform gradient run                                         *
*  conv         - constant volume calculation                                  *
*  phonon       - calculate phonons for final geometry                         *
*  hessian      - output inverse Hessian matrix when calculated exactly        *
********************************************************************************

  Job Started  at 15:17.10 16th August     2018                               

  Number of CPUs =     1

  Host name      = M-A0010516-S                            


  Total number of configurations input =      1

********************************************************************************
*  Input for Configuration =   1                                               *
********************************************************************************

  Formula = SiO5                                                        

  Number of irreducible atoms/shells =       6


  Total number atoms/shells =       6

  Dimensionality = 0               :  Cluster


  Charge on cluster =   0.000000


  Initial cluster dipoles : x =      0.000000 e.Angs
                            y =      0.000000 e.Angs
                            z =      0.000000 e.Angs

  Temperature of configuration =  0.000     K 

  Symmetry number =      1

  Cartesian coordinates of cluster :

--------------------------------------------------------------------------------
   No.  Atomic       x           y          z         Charge      Occupancy
        Label      (Angs)      (Angs)     (Angs)        (e)         (Frac)  
--------------------------------------------------------------------------------
      1 Si1   c      0.0000      0.0000      0.0000     0.00000    1.000000    
      2 O1    c     -2.5000 *    0.0000 *    0.0000 *   0.00000    1.000000    
      3 O1    c      2.7000 *    0.0000 *    0.0000 *   0.00000    1.000000    
      4 O1    c      0.0000 *    2.5000 *    0.0000 *   0.00000    1.000000    
      5 O1    c      0.0000 *   -2.6000 *    0.0000 *   0.00000    1.000000    
      6 O1    c      0.0000 *    0.0000 *    2.5000 *   0.00000    1.000000    
--------------------------------------------------------------------------------


  Brillouin zone sampling points :

--------------------------------------------------------------------------------
  Point number          x          y          z            Weight
--------------------------------------------------------------------------------
        1           0.000000   0.000000   0.000000     1.00000000
--------------------------------------------------------------------------------


********************************************************************************
*  General input information                                                   *
********************************************************************************

  Species output for all configurations : 

--------------------------------------------------------------------------------
  Species    Type    Atomic    Atomic    Charge       Radii (Angs)     Library
                     Number     Mass       (e)     Cova   Ionic  VDW   Symbol
--------------------------------------------------------------------------------
    O1       Core        8      16.00   0.000000   0.730  0.000  1.360 O        
    Si1      Core       14      28.09   0.000000   1.200  0.000  2.100 Si       
--------------------------------------------------------------------------------


  Accuracy factor for short range sums = 12.000

  Time limit = Infinity

  Bond-order two-body potentials :

--------------------------------------------------------------------------------
Atom  Types                 A                 B                  Cutoffs(Ang)   
  1     2                 ZetaA             ZetaB                Taper    Max   
--------------------------------------------------------------------------------
O1   c O1   c          3331.0600000000       260.4770000000     2.2607   3.3129
                          3.783360000          3.344020000    
--------------------------------------------------------------------------------
Si1  c Si1  c          1830.7900000000       471.1950000000     2.4481   3.0835
                          2.623920000          1.888910000    
--------------------------------------------------------------------------------
O1   c Si1  c          2586.8593540000       350.2591000000     2.3525   3.1962
                          3.943670000          2.315955000    
--------------------------------------------------------------------------------

  Bond-order repulsive :

--------------------------------------------------------------------------------
Atom    Type         Alpha            N             Lambda          M           
 1/2     1/2                                                                    
--------------------------------------------------------------------------------
O1   c             1.00270000       3.98638000       3.34402000       1
O1   c
--------------------------------------------------------------------------------
Si1  c             0.00000110       0.78766000       1.88891000       3
Si1  c
--------------------------------------------------------------------------------
O1   c             1.00270000       3.98638000       2.31595500       1
Si1  c
--------------------------------------------------------------------------------
Si1  c             0.00000110       0.78766000       2.31595500       3
O1   c
--------------------------------------------------------------------------------

  Bond-order attractive :

--------------------------------------------------------------------------------
Atom    Type         Alpha            N             Lambda          M           
 1/2     1/2           C              D                H                        
--------------------------------------------------------------------------------
O1   c  Theta       1.00270000       3.98638000       3.34402000       1
O1   c              0.00000000       1.00000000      -0.52909000
--------------------------------------------------------------------------------
Si1  c  Theta       0.00000110       0.78766000       1.88891000       3
Si1  c         100390.00000000      16.21701000      -0.59784000
--------------------------------------------------------------------------------
O1   c  Theta       1.00270000       3.98638000       2.31595500       1
Si1  c              0.00000000       1.00000000      -0.52909000
--------------------------------------------------------------------------------
Si1  c  Theta       0.00000110       0.78766000       2.31595500       3
O1   c         100390.00000000      16.21701000      -0.59784000
--------------------------------------------------------------------------------

  Bond-order coordination :

--------------------------------------------------------------------------------
Atom              C1              C2              Z0              E0            
--------------------------------------------------------------------------------
Si1  c         -0.12380000       0.28520000       3.70000000    -103.73300000
--------------------------------------------------------------------------------
O1   c         -0.00380000       0.13930000       2.80000000    -432.15800000
--------------------------------------------------------------------------------

********************************************************************************
*  Output for configuration   1                                                *
********************************************************************************


  Number of neighbours for atoms :

  i  Nat   N
   1  14      5
   2   8      1
   3   8      1
   4   8      1
   5   8      1
   6   8      1

  Neighbours of atoms :

   1    2    3    4    5    6
   2    1
   3    1
   4    1
   5    1
   6    1

  Number of neighbours for atoms :

  i  Nat   N
   1  14      5
   2   8      1
   3   8      1
   4   8      1
   5   8      1
   6   8      1

  Neighbours of atoms :

   1    2    3    4    5    6
   2    1
   3    1
   4    1
   5    1
   6    1

  Number of neighbours for atoms :

  i  Nat   N
   1  14      5
   2   8      1
   3   8      1
   4   8      1
   5   8      1
   6   8      1

  Neighbours of atoms :

   1    2    3    4    5    6
   2    1
   3    1
   4    1
   5    1
   6    1

  Number of neighbours for atoms :

  i  Nat   N
   1  14      5
   2   8      1
   3   8      1
   4   8      1
   5   8      1
   6   8      1

  Neighbours of atoms :

   1    2    3    4    5    6
   2    1
   3    1
   4    1
   5    1
   6    1

  Number of neighbours for atoms :

  i  Nat   N
   1  14      5
   2   8      1
   3   8      1
   4   8      1
   5   8      1
   6   8      1

  Neighbours of atoms :

   1    2    3    4    5    6
   2    1
   3    1
   4    1
   5    1
   6    1

  Number of neighbours for atoms :

  i  Nat   N
   1  14      5
   2   8      1
   3   8      1
   4   8      1
   5   8      1
   6   8      1

  Neighbours of atoms :

   1    2    3    4    5    6
   2    1
   3    1
   4    1
   5    1
   6    1

  Number of neighbours for atoms :

  i  Nat   N
   1  14      5
   2   8      1
   3   8      1
   4   8      1
   5   8      1
   6   8      1

  Neighbours of atoms :

   1    2    3    4    5    6
   2    1
   3    1
   4    1
   5    1
   6    1

  Number of neighbours for atoms :

  i  Nat   N
   1  14      5
   2   8      1
   3   8      1
   4   8      1
   5   8      1
   6   8      1

  Neighbours of atoms :

   1    2    3    4    5    6
   2    1
   3    1
   4    1
   5    1
   6    1

  Number of neighbours for atoms :

  i  Nat   N
   1  14      5
   2   8      1
   3   8      1
   4   8      1
   5   8      1
   6   8      1

  Neighbours of atoms :

   1    2    3    4    5    6
   2    1
   3    1
   4    1
   5    1
   6    1

  Number of neighbours for atoms :

  i  Nat   N
   1  14      5
   2   8      1
   3   8      1
   4   8      1
   5   8      1
   6   8      1

  Neighbours of atoms :

   1    2    3    4    5    6
   2    1
   3    1
   4    1
   5    1
   6    1

  Number of neighbours for atoms :

  i  Nat   N
   1  14      5
   2   8      1
   3   8      1
   4   8      1
   5   8      1
   6   8      1

  Neighbours of atoms :

   1    2    3    4    5    6
   2    1
   3    1
   4    1
   5    1
   6    1

  Number of neighbours for atoms :

  i  Nat   N
   1  14      5
   2   8      1
   3   8      1
   4   8      1
   5   8      1
   6   8      1

  Neighbours of atoms :

   1    2    3    4    5    6
   2    1
   3    1
   4    1
   5    1
   6    1

  Number of neighbours for atoms :

  i  Nat   N
   1  14      5
   2   8      1
   3   8      1
   4   8      1
   5   8      1
   6   8      1

  Neighbours of atoms :

   1    2    3    4    5    6
   2    1
   3    1
   4    1
   5    1
   6    1

  Number of neighbours for atoms :

  i  Nat   N
   1  14      5
   2   8      1
   3   8      1
   4   8      1
   5   8      1
   6   8      1

  Neighbours of atoms :

   1    2    3    4    5    6
   2    1
   3    1
   4    1
   5    1
   6    1

  Number of neighbours for atoms :

  i  Nat   N
   1  14      5
   2   8      1
   3   8      1
   4   8      1
   5   8      1
   6   8      1

  Neighbours of atoms :

   1    2    3    4    5    6
   2    1
   3    1
   4    1
   5    1
   6    1

  Number of neighbours for atoms :

  i  Nat   N
   1  14      5
   2   8      1
   3   8      1
   4   8      1
   5   8      1
   6   8      1

  Neighbours of atoms :

   1    2    3    4    5    6
   2    1
   3    1
   4    1
   5    1
   6    1

  Number of neighbours for atoms :

  i  Nat   N
   1  14      5
   2   8      1
   3   8      1
   4   8      1
   5   8      1
   6   8      1

  Neighbours of atoms :

   1    2    3    4    5    6
   2    1
   3    1
   4    1
   5    1
   6    1

  Number of neighbours for atoms :

  i  Nat   N
   1  14      5
   2   8      1
   3   8      1
   4   8      1
   5   8      1
   6   8      1

  Neighbours of atoms :

   1    2    3    4    5    6
   2    1
   3    1
   4    1
   5    1
   6    1

  Number of neighbours for atoms :

  i  Nat   N
   1  14      5
   2   8      1
   3   8      1
   4   8      1
   5   8      1
   6   8      1

  Neighbours of atoms :

   1    2    3    4    5    6
   2    1
   3    1
   4    1
   5    1
   6    1

  Number of neighbours for atoms :

  i  Nat   N
   1  14      5
   2   8      1
   3   8      1
   4   8      1
   5   8      1
   6   8      1

  Neighbours of atoms :

   1    2    3    4    5    6
   2    1
   3    1
   4    1
   5    1
   6    1

  Number of neighbours for atoms :

  i  Nat   N
   1  14      5
   2   8      1
   3   8      1
   4   8      1
   5   8      1
   6   8      1

  Neighbours of atoms :

   1    2    3    4    5    6
   2    1
   3    1
   4    1
   5    1
   6    1

  Number of neighbours for atoms :

  i  Nat   N
   1  14      5
   2   8      1
   3   8      1
   4   8      1
   5   8      1
   6   8      1

  Neighbours of atoms :

   1    2    3    4    5    6
   2    1
   3    1
   4    1
   5    1
   6    1

  Number of neighbours for atoms :

  i  Nat   N
   1  14      5
   2   8      1
   3   8      1
   4   8      1
   5   8      1
   6   8      1

  Neighbours of atoms :

   1    2    3    4    5    6
   2    1
   3    1
   4    1
   5    1
   6    1

  Number of neighbours for atoms :

  i  Nat   N
   1  14      5
   2   8      1
   3   8      1
   4   8      1
   5   8      1
   6   8      1

  Neighbours of atoms :

   1    2    3    4    5    6
   2    1
   3    1
   4    1
   5    1
   6    1

  Number of neighbours for atoms :

  i  Nat   N
   1  14      5
   2   8      1
   3   8      1
   4   8      1
   5   8      1
   6   8      1

  Neighbours of atoms :

   1    2    3    4    5    6
   2    1
   3    1
   4    1
   5    1
   6    1

  Number of neighbours for atoms :

  i  Nat   N
   1  14      5
   2   8      1
   3   8      1
   4   8      1
   5   8      1
   6   8      1

  Neighbours of atoms :

   1    2    3    4    5    6
   2    1
   3    1
   4    1
   5    1
   6    1

  Number of neighbours for atoms :

  i  Nat   N
   1  14      5
   2   8      1
   3   8      1
   4   8      1
   5   8      1
   6   8      1

  Neighbours of atoms :

   1    2    3    4    5    6
   2    1
   3    1
   4    1
   5    1
   6    1

  Number of neighbours for atoms :

  i  Nat   N
   1  14      5
   2   8      1
   3   8      1
   4   8      1
   5   8      1
   6   8      1

  Neighbours of atoms :

   1    2    3    4    5    6
   2    1
   3    1
   4    1
   5    1
   6    1

  Number of neighbours for atoms :

  i  Nat   N
   1  14      5
   2   8      1
   3   8      1
   4   8      1
   5   8      1
   6   8      1

  Neighbours of atoms :

   1    2    3    4    5    6
   2    1
   3    1
   4    1
   5    1
   6    1

  Number of neighbours for atoms :

  i  Nat   N
   1  14      5
   2   8      1
   3   8      1
   4   8      1
   5   8      1
   6   8      1

  Neighbours of atoms :

   1    2    3    4    5    6
   2    1
   3    1
   4    1
   5    1
   6    1

  Number of neighbours for atoms :

  i  Nat   N
   1  14      5
   2   8      1
   3   8      1
   4   8      1
   5   8      1
   6   8      1

  Neighbours of atoms :

   1    2    3    4    5    6
   2    1
   3    1
   4    1
   5    1
   6    1

  Number of neighbours for atoms :

  i  Nat   N
   1  14      5
   2   8      1
   3   8      1
   4   8      1
   5   8      1
   6   8      1

  Neighbours of atoms :

   1    2    3    4    5    6
   2    1
   3    1
   4    1
   5    1
   6    1

  Numerical Hessian Matrix :

       -1.7015
        0.0194      1.0154
        0.0922     -0.0005      0.9956
       -0.0626      0.0040      0.0096     -4.9954
       -0.0003     -0.0085      0.0000     -0.0205      0.6418
       -0.0027      0.0000     -0.0066     -0.0769     -0.0003      0.6328
       -0.0821     -0.0223      0.0036     -0.0894      0.0125     -0.0015      1.0119
       -0.0941     -0.0845      0.0053      0.1678     -0.0407      0.0043      0.0469     -1.7214
       -0.0054     -0.0037      0.0114      0.0138     -0.0022      0.0054      0.0014     -0.0945      0.9972
       -0.0632      0.0175      0.0029     -0.0625     -0.0095     -0.0011     -0.0115     -0.0003      0.0000      0.8501
        0.1411     -0.0869     -0.0096     -0.1286     -0.0457     -0.0046      0.0038     -0.0577     -0.0069     -0.0372
     -4.0007
       -0.0046      0.0024      0.0081      0.0091      0.0015      0.0038      0.0000      0.0032     -0.0099      0.0008
      0.0853      0.8397
       -0.0810      0.0005     -0.0186     -0.0857     -0.0003      0.0107      0.0090     -0.0007      0.0012      0.0063
      0.0046      0.0010      1.0072
       -0.0006      0.0078     -0.0005      0.0044      0.0033     -0.0003      0.0014     -0.0836      0.0194     -0.0008
     -0.0852     -0.0154      0.0002      1.0123
       -0.0890      0.0007     -0.0768      0.1517      0.0006     -0.0364     -0.0008      0.0892     -0.0770     -0.0008
     -0.1322     -0.0592      0.0441     -0.0188     -1.7389

  Components of energy : 

--------------------------------------------------------------------------------
  Interatomic potentials     =           0.00000000 eV    
  Bond-order potentials      =       -2267.13825956 eV    
  Monopole - monopole (real) =           0.00000000 eV    
--------------------------------------------------------------------------------
  Total lattice energy       =       -2267.13825956 eV    
--------------------------------------------------------------------------------
  Total lattice energy       =         -218744.1857 kJ/mol
--------------------------------------------------------------------------------


  Moment of inertia tensor (10^-46 x kgm^2): 

-------------------------------------------------------------------------------
                x           y           z           Principal axis system
-------------------------------------------------------------------------------
       x         48.71       -0.01        0.20           48.708197
       y         -0.01       50.11       -0.10           50.105926
       z          0.20       -0.10       70.52           70.523404
-------------------------------------------------------------------------------
  Centre of mass (Ang) =     0.029605    -0.014802     0.370062
-------------------------------------------------------------------------------


  Vibrational Frequency Calculation : 

--------------------------------------------------------------------------------

  Number of neighbours for atoms :

  i  Nat   N
   1  14      5
   2   8      1
   3   8      1
   4   8      1
   5   8      1
   6   8      1

  Neighbours of atoms :

   1    2    3    4    5    6
   2    1
   3    1
   4    1
   5    1
   6    1

  Number of neighbours for atoms :

  i  Nat   N
   1  14      5
   2   8      1
   3   8      1
   4   8      1
   5   8      1
   6   8      1

  Neighbours of atoms :

   1    2    3    4    5    6
   2    1
   3    1
   4    1
   5    1
   6    1

  Number of neighbours for atoms :

  i  Nat   N
   1  14      5
   2   8      1
   3   8      1
   4   8      1
   5   8      1
   6   8      1

  Neighbours of atoms :

   1    2    3    4    5    6
   2    1
   3    1
   4    1
   5    1
   6    1

  Number of neighbours for atoms :

  i  Nat   N
   1  14      5
   2   8      1
   3   8      1
   4   8      1
   5   8      1
   6   8      1

  Neighbours of atoms :

   1    2    3    4    5    6
   2    1
   3    1
   4    1
   5    1
   6    1

  Number of neighbours for atoms :

  i  Nat   N
   1  14      5
   2   8      1
   3   8      1
   4   8      1
   5   8      1
   6   8      1

  Neighbours of atoms :

   1    2    3    4    5    6
   2    1
   3    1
   4    1
   5    1
   6    1

  Number of neighbours for atoms :

  i  Nat   N
   1  14      5
   2   8      1
   3   8      1
   4   8      1
   5   8      1
   6   8      1

  Neighbours of atoms :

   1    2    3    4    5    6
   2    1
   3    1
   4    1
   5    1
   6    1

  Number of neighbours for atoms :

  i  Nat   N
   1  14      5
   2   8      1
   3   8      1
   4   8      1
   5   8      1
   6   8      1

  Neighbours of atoms :

   1    2    3    4    5    6
   2    1
   3    1
   4    1
   5    1
   6    1

  Number of neighbours for atoms :

  i  Nat   N
   1  14      5
   2   8      1
   3   8      1
   4   8      1
   5   8      1
   6   8      1

  Neighbours of atoms :

   1    2    3    4    5    6
   2    1
   3    1
   4    1
   5    1
   6    1

  Number of neighbours for atoms :

  i  Nat   N
   1  14      5
   2   8      1
   3   8      1
   4   8      1
   5   8      1
   6   8      1

  Neighbours of atoms :

   1    2    3    4    5    6
   2    1
   3    1
   4    1
   5    1
   6    1

  Number of neighbours for atoms :

  i  Nat   N
   1  14      5
   2   8      1
   3   8      1
   4   8      1
   5   8      1
   6   8      1

  Neighbours of atoms :

   1    2    3    4    5    6
   2    1
   3    1
   4    1
   5    1
   6    1

  Number of neighbours for atoms :

  i  Nat   N
   1  14      5
   2   8      1
   3   8      1
   4   8      1
   5   8      1
   6   8      1

  Neighbours of atoms :

   1    2    3    4    5    6
   2    1
   3    1
   4    1
   5    1
   6    1

  Number of neighbours for atoms :

  i  Nat   N
   1  14      5
   2   8      1
   3   8      1
   4   8      1
   5   8      1
   6   8      1

  Neighbours of atoms :

   1    2    3    4    5    6
   2    1
   3    1
   4    1
   5    1
   6    1

  Number of neighbours for atoms :

  i  Nat   N
   1  14      5
   2   8      1
   3   8      1
   4   8      1
   5   8      1
   6   8      1

  Neighbours of atoms :

   1    2    3    4    5    6
   2    1
   3    1
   4    1
   5    1
   6    1

  Number of neighbours for atoms :

  i  Nat   N
   1  14      5
   2   8      1
   3   8      1
   4   8      1
   5   8      1
   6   8      1

  Neighbours of atoms :

   1    2    3    4    5    6
   2    1
   3    1
   4    1
   5    1
   6    1

  Number of neighbours for atoms :

  i  Nat   N
   1  14      5
   2   8      1
   3   8      1
   4   8      1
   5   8      1
   6   8      1

  Neighbours of atoms :

   1    2    3    4    5    6
   2    1
   3    1
   4    1
   5    1
   6    1

  Number of neighbours for atoms :

  i  Nat   N
   1  14      5
   2   8      1
   3   8      1
   4   8      1
   5   8      1
   6   8      1

  Neighbours of atoms :

   1    2    3    4    5    6
   2    1
   3    1
   4    1
   5    1
   6    1

  Number of neighbours for atoms :

  i  Nat   N
   1  14      5
   2   8      1
   3   8      1
   4   8      1
   5   8      1
   6   8      1

  Neighbours of atoms :

   1    2    3    4    5    6
   2    1
   3    1
   4    1
   5    1
   6    1

  Number of neighbours for atoms :

  i  Nat   N
   1  14      5
   2   8      1
   3   8      1
   4   8      1
   5   8      1
   6   8      1

  Neighbours of atoms :

   1    2    3    4    5    6
   2    1
   3    1
   4    1
   5    1
   6    1

  Number of neighbours for atoms :

  i  Nat   N
   1  14      5
   2   8      1
   3   8      1
   4   8      1
   5   8      1
   6   8      1

  Neighbours of atoms :

   1    2    3    4    5    6
   2    1
   3    1
   4    1
   5    1
   6    1

  Number of neighbours for atoms :

  i  Nat   N
   1  14      5
   2   8      1
   3   8      1
   4   8      1
   5   8      1
   6   8      1

  Neighbours of atoms :

   1    2    3    4    5    6
   2    1
   3    1
   4    1
   5    1
   6    1

  Number of neighbours for atoms :

  i  Nat   N
   1  14      5
   2   8      1
   3   8      1
   4   8      1
   5   8      1
   6   8      1

  Neighbours of atoms :

   1    2    3    4    5    6
   2    1
   3    1
   4    1
   5    1
   6    1

  Number of neighbours for atoms :

  i  Nat   N
   1  14      5
   2   8      1
   3   8      1
   4   8      1
   5   8      1
   6   8      1

  Neighbours of atoms :

   1    2    3    4    5    6
   2    1
   3    1
   4    1
   5    1
   6    1

  Number of neighbours for atoms :

  i  Nat   N
   1  14      5
   2   8      1
   3   8      1
   4   8      1
   5   8      1
   6   8      1

  Neighbours of atoms :

   1    2    3    4    5    6
   2    1
   3    1
   4    1
   5    1
   6    1

  Number of neighbours for atoms :

  i  Nat   N
   1  14      5
   2   8      1
   3   8      1
   4   8      1
   5   8      1
   6   8      1

  Neighbours of atoms :

   1    2    3    4    5    6
   2    1
   3    1
   4    1
   5    1
   6    1

  Number of neighbours for atoms :

  i  Nat   N
   1  14      5
   2   8      1
   3   8      1
   4   8      1
   5   8      1
   6   8      1

  Neighbours of atoms :

   1    2    3    4    5    6
   2    1
   3    1
   4    1
   5    1
   6    1

  Number of neighbours for atoms :

  i  Nat   N
   1  14      5
   2   8      1
   3   8      1
   4   8      1
   5   8      1
   6   8      1

  Neighbours of atoms :

   1    2    3    4    5    6
   2    1
   3    1
   4    1
   5    1
   6    1

  Number of neighbours for atoms :

  i  Nat   N
   1  14      5
   2   8      1
   3   8      1
   4   8      1
   5   8      1
   6   8      1

  Neighbours of atoms :

   1    2    3    4    5    6
   2    1
   3    1
   4    1
   5    1
   6    1

  Number of neighbours for atoms :

  i  Nat   N
   1  14      5
   2   8      1
   3   8      1
   4   8      1
   5   8      1
   6   8      1

  Neighbours of atoms :

   1    2    3    4    5    6
   2    1
   3    1
   4    1
   5    1
   6    1

  Number of neighbours for atoms :

  i  Nat   N
   1  14      5
   2   8      1
   3   8      1
   4   8      1
   5   8      1
   6   8      1

  Neighbours of atoms :

   1    2    3    4    5    6
   2    1
   3    1
   4    1
   5    1
   6    1

  Number of neighbours for atoms :

  i  Nat   N
   1  14      5
   2   8      1
   3   8      1
   4   8      1
   5   8      1
   6   8      1

  Neighbours of atoms :

   1    2    3    4    5    6
   2    1
   3    1
   4    1
   5    1
   6    1

  Number of neighbours for atoms :

  i  Nat   N
   1  14      5
   2   8      1
   3   8      1
   4   8      1
   5   8      1
   6   8      1

  Neighbours of atoms :

   1    2    3    4    5    6
   2    1
   3    1
   4    1
   5    1
   6    1

  Number of neighbours for atoms :

  i  Nat   N
   1  14      5
   2   8      1
   3   8      1
   4   8      1
   5   8      1
   6   8      1

  Neighbours of atoms :

   1    2    3    4    5    6
   2    1
   3    1
   4    1
   5    1
   6    1

  Number of neighbours for atoms :

  i  Nat   N
   1  14      5
   2   8      1
   3   8      1
   4   8      1
   5   8      1
   6   8      1

  Neighbours of atoms :

   1    2    3    4    5    6
   2    1
   3    1
   4    1
   5    1
   6    1

  Number of neighbours for atoms :

  i  Nat   N
   1  14      5
   2   8      1
   3   8      1
   4   8      1
   5   8      1
   6   8      1

  Neighbours of atoms :

   1    2    3    4    5    6
   2    1
   3    1
   4    1
   5    1
   6    1

  Number of neighbours for atoms :

  i  Nat   N
   1  14      5
   2   8      1
   3   8      1
   4   8      1
   5   8      1
   6   8      1

  Neighbours of atoms :

   1    2    3    4    5    6
   2    1
   3    1
   4    1
   5    1
   6    1

  Number of neighbours for atoms :

  i  Nat   N
   1  14      5
   2   8      1
   3   8      1
   4   8      1
   5   8      1
   6   8      1

  Neighbours of atoms :

   1    2    3    4    5    6
   2    1
   3    1
   4    1
   5    1
   6    1

  Frequencies (cm-1) [NB: Negative implies an imaginary mode]:

 -373.83 -337.94 -208.21 -197.13 -179.16   -0.00   -0.00    0.00  107.29
  109.55  122.58  123.74  128.63  130.89  131.89  172.93  176.64  201.77


--------------------------------------------------------------------------------
  Vibrational properties (for cluster):  Temperature  =       0.000 K
--------------------------------------------------------------------------------
  Zero point energy            =        0.087156 eV
--------------------------------------------------------------------------------



  Final Cartesian derivatives :

--------------------------------------------------------------------------------
   No.  Atomic          x             y             z           Radius
        Label       (eV/Angs)     (eV/Angs)    (eV/Angs)      (eV/Angs)
--------------------------------------------------------------------------------
      1 Si1   c       0.000000      0.000000      0.000000      0.000000
      2 O1    c      -2.460382      0.008487      0.035174      0.000000
      3 O1    c       1.698185      0.004372      0.017361      0.000000
      4 O1    c      -0.016879      2.470135      0.035522      0.000000
      5 O1    c      -0.012609     -2.169720      0.026114      0.000000
      6 O1    c      -0.016424      0.008363      2.442287      0.000000
--------------------------------------------------------------------------------
  Maximum abs         2.460382      2.470135      2.442287      0.000000
--------------------------------------------------------------------------------


  Time to end of properties =       0.0121 seconds


  Peak dynamic memory used =       0.53 MB 


  Timing analysis for GULP :

--------------------------------------------------------------------------------
  Task / Subroutine                                          Time (Seconds)
--------------------------------------------------------------------------------
  Calculation of Bond Order energy and derivatives                0.0024
  Calculation of phonons                                          0.0019
--------------------------------------------------------------------------------
  Total CPU time                                                  0.0121
--------------------------------------------------------------------------------


  Job Finished at 15:17.10 16th August     2018                               

