********************************************************************************
*                       GENERAL UTILITY LATTICE PROGRAM                        *
*                                 Julian Gale                                  *
*                       Curtin Institute for Computation                       *
*                           Department of Chemistry                            *
*                    Curtin University, Western Australia                      *
********************************************************************************
* Version = 5.1.0 * Last modified =   4th July 2018                            *
********************************************************************************
*  optimise     - perform optimisation run                                     *
********************************************************************************

  Job Started  at 15:36.02  4th July       2018                               

  Number of CPUs =     1

  Host name      = M-A0010516-S                            


  Total number of configurations input =      1

********************************************************************************
*  Input for Configuration =   1                                               *
********************************************************************************

  Formula = Mg64O64                                                     

  Number of irreducible atoms/shells =     192


  Total number atoms/shells =     192

  Dimensionality = 1               :  Polymer



  Polymer Cartesian vector (Angstroms) :

        4.198998    0.000000    0.000000

  Polymer cell parameter (Angstrom):

  a =       4.1990

  Initial polymer dipoles : y =     -0.000000 e.Angs
                            z =     -0.000000 e.Angs

  Temperature of configuration =  0.000     K 

  Mixed fractional/Cartesian coordinates of polymer :

--------------------------------------------------------------------------------
   No.  Atomic       x           y          z         Charge      Occupancy
        Label      (Frac)      (Angs)     (Angs)        (e)         (Frac)  
--------------------------------------------------------------------------------
      1 Mg    c    0.124999 *    0.0000 *    0.0000 *   2.00000    1.000000    
      2 Mg    c    0.176209 *    0.0000 *    4.1990 *   2.00000    1.000000    
      3 Mg    c    0.250000 *    0.0000 *    8.3980 *   2.00000    1.000000    
      4 Mg    c    0.823791 *    0.0000 *   12.5969 *   2.00000    1.000000    
      5 Mg    c    0.073791 *    4.1990 *    0.0000 *   2.00000    1.000000    
      6 Mg    c    0.124999 *    4.1990 *    4.1990 *   2.00000    1.000000    
      7 Mg    c    0.249998      4.1990      8.3980     2.00000    1.000000    
      8 Mg    c    0.874999 *    4.1990 *   12.5969 *   2.00000    1.000000    
      9 Mg    c    0.000000 *    8.3980 *    0.0000 *   2.00000    1.000000    
     10 Mg    c    0.000002      8.3980      4.1990     2.00000    1.000000    
     11 Mg    c    0.124999      8.3980      8.3980     2.00000    1.000000    
     12 Mg    c    0.999998      8.3980     12.5969     2.00000    1.000000    
     13 Mg    c    0.926209 *   12.5969 *    0.0000 *   2.00000    1.000000    
     14 Mg    c    0.875001 *   12.5969 *    4.1990 *   2.00000    1.000000    
     15 Mg    c    0.750002     12.5969      8.3980     2.00000    1.000000    
     16 Mg    c    0.124999 *   12.5969 *   12.5969 *   2.00000    1.000000    
     17 Mg    c    0.124999 *    2.0995 *    2.0995 *   2.00000    1.000000    
     18 Mg    c    0.198790 *    2.0995 *    6.2985 *   2.00000    1.000000    
     19 Mg    c    0.801207 *    2.0995 *   10.4975 *   2.00000    1.000000    
     20 Mg    c    0.874999 *    2.0995 *   14.6964 *   2.00000    1.000000    
     21 Mg    c    0.051210 *    6.2985 *    2.0995 *   2.00000    1.000000    
     22 Mg    c    0.124999      6.2985      6.2985     2.00000    1.000000    
     23 Mg    c    0.874996      6.2985     10.4975     2.00000    1.000000    
     24 Mg    c    0.948790 *    6.2985 *   14.6964 *   2.00000    1.000000    
     25 Mg    c    0.948793 *   10.4975 *    2.0995 *   2.00000    1.000000    
     26 Mg    c    0.875004     10.4975      6.2985     2.00000    1.000000    
     27 Mg    c    0.124999     10.4975     10.4975     2.00000    1.000000    
     28 Mg    c    0.051207 *   10.4975 *   14.6964 *   2.00000    1.000000    
     29 Mg    c    0.875001 *   14.6964 *    2.0995 *   2.00000    1.000000    
     30 Mg    c    0.801210 *   14.6964 *    6.2985 *   2.00000    1.000000    
     31 Mg    c    0.198793 *   14.6964 *   10.4975 *   2.00000    1.000000    
     32 Mg    c    0.124999 *   14.6964 *   14.6964 *   2.00000    1.000000    
     33 Mg    c    0.647581 *    0.0000 *    2.0995 *   2.00000    1.000000    
     34 Mg    c    0.711008 *    0.0000 *    6.2985 *   2.00000    1.000000    
     35 Mg    c    0.288986 *    0.0000 *   10.4975 *   2.00000    1.000000    
     36 Mg    c    0.352413 *    0.0000 *   14.6964 *   2.00000    1.000000    
     37 Mg    c    0.593582 *    4.1990 *    2.0995 *   2.00000    1.000000    
     38 Mg    c    0.676204      4.1990      6.2985     2.00000    1.000000    
     39 Mg    c    0.323787      4.1990     10.4975     2.00000    1.000000    
     40 Mg    c    0.406414 *    4.1990 *   14.6964 *   2.00000    1.000000    
     41 Mg    c    0.499998 *    8.3980 *    2.0995 *   2.00000    1.000000    
     42 Mg    c    0.500000      8.3980      6.2985     2.00000    1.000000    
     43 Mg    c    0.499995      8.3980     10.4975     2.00000    1.000000    
     44 Mg    c    0.499995 *    8.3980 *   14.6964 *   2.00000    1.000000    
     45 Mg    c    0.406416 *   12.5969 *    2.0995 *   2.00000    1.000000    
     46 Mg    c    0.323792     12.5969      6.2985     2.00000    1.000000    
     47 Mg    c    0.676207     12.5969     10.4975     2.00000    1.000000    
     48 Mg    c    0.593582 *   12.5969 *   14.6964 *   2.00000    1.000000    
     49 Mg    c    0.602415 *    2.0995 *    0.0000 *   2.00000    1.000000    
     50 Mg    c    0.656414 *    2.0995 *    4.1990 *   2.00000    1.000000    
     51 Mg    c    0.749996 *    2.0995 *    8.3980 *   2.00000    1.000000    
     52 Mg    c    0.343580 *    2.0995 *   12.5969 *   2.00000    1.000000    
     53 Mg    c    0.538988 *    6.2985 *    0.0000 *   2.00000    1.000000    
     54 Mg    c    0.573789      6.2985      4.1990     2.00000    1.000000    
     55 Mg    c    0.749996      6.2985      8.3980     2.00000    1.000000    
     56 Mg    c    0.426204      6.2985     12.5969     2.00000    1.000000    
     57 Mg    c    0.461010 *   10.4975 *    0.0000 *   2.00000    1.000000    
     58 Mg    c    0.426206     10.4975      4.1990     2.00000    1.000000    
     59 Mg    c    0.250000     10.4975      8.3980     2.00000    1.000000    
     60 Mg    c    0.573789     10.4975     12.5969     2.00000    1.000000    
     61 Mg    c    0.397583 *   14.6964 *    0.0000 *   2.00000    1.000000    
     62 Mg    c    0.343582 *   14.6964 *    4.1990 *   2.00000    1.000000    
     63 Mg    c    0.249998 *   14.6964 *    8.3980 *   2.00000    1.000000    
     64 Mg    c    0.656414 *   14.6964 *   12.5969 *   2.00000    1.000000    
     65 O     c    0.624997 *    2.0995 *    2.0995 *   0.84819    1.000000    
     66 O     c    0.698788 *    2.0995 *    6.2985 *   0.84819    1.000000    
     67 O     c    0.301205 *    2.0995 *   10.4975 *   0.84819    1.000000    
     68 O     c    0.374997 *    2.0995 *   14.6964 *   0.84819    1.000000    
     69 O     c    0.551205 *    6.2985 *    2.0995 *   0.84819    1.000000    
     70 O     c    0.624997      6.2985      6.2985     0.84819    1.000000    
     71 O     c    0.374994      6.2985     10.4975     0.84819    1.000000    
     72 O     c    0.448788 *    6.2985 *   14.6964 *   0.84819    1.000000    
     73 O     c    0.448790 *   10.4975 *    2.0995 *   0.84819    1.000000    
     74 O     c    0.375001     10.4975      6.2985     0.84819    1.000000    
     75 O     c    0.624997     10.4975     10.4975     0.84819    1.000000    
     76 O     c    0.551205 *   10.4975 *   14.6964 *   0.84819    1.000000    
     77 O     c    0.374999 *   14.6964 *    2.0995 *   0.84819    1.000000    
     78 O     c    0.301208 *   14.6964 *    6.2985 *   0.84819    1.000000    
     79 O     c    0.698791 *   14.6964 *   10.4975 *   0.84819    1.000000    
     80 O     c    0.624997 *   14.6964 *   14.6964 *   0.84819    1.000000    
     81 O     c    0.624997 *    0.0000 *    0.0000 *   0.84819    1.000000    
     82 O     c    0.676207 *    0.0000 *    4.1990 *   0.84819    1.000000    
     83 O     c    0.749998 *    0.0000 *    8.3980 *   0.84819    1.000000    
     84 O     c    0.323789 *    0.0000 *   12.5969 *   0.84819    1.000000    
     85 O     c    0.573789 *    4.1990 *    0.0000 *   0.84819    1.000000    
     86 O     c    0.624997 *    4.1990 *    4.1990 *   0.84819    1.000000    
     87 O     c    0.749996      4.1990      8.3980     0.84819    1.000000    
     88 O     c    0.374997 *    4.1990 *   12.5969 *   0.84819    1.000000    
     89 O     c    0.499998 *    8.3980 *    0.0000 *   0.84819    1.000000    
     90 O     c    0.500000      8.3980      4.1990     0.84819    1.000000    
     91 O     c    0.624997      8.3980      8.3980     0.84819    1.000000    
     92 O     c    0.499995      8.3980     12.5969     0.84819    1.000000    
     93 O     c    0.426206 *   12.5969 *    0.0000 *   0.84819    1.000000    
     94 O     c    0.374999 *   12.5969 *    4.1990 *   0.84819    1.000000    
     95 O     c    0.250000     12.5969      8.3980     0.84819    1.000000    
     96 O     c    0.624997 *   12.5969 *   12.5969 *   0.84819    1.000000    
     97 O     c    0.102417 *    2.0995 *    0.0000 *   0.84819    1.000000    
     98 O     c    0.156416 *    2.0995 *    4.1990 *   0.84819    1.000000    
     99 O     c    0.250000 *    2.0995 *    8.3980 *   0.84819    1.000000    
    100 O     c    0.843582 *    2.0995 *   12.5969 *   0.84819    1.000000    
    101 O     c    0.038990 *    6.2985 *    0.0000 *   0.84819    1.000000    
    102 O     c    0.073791      6.2985      4.1990     0.84819    1.000000    
    103 O     c    0.249998      6.2985      8.3980     0.84819    1.000000    
    104 O     c    0.926206      6.2985     12.5969     0.84819    1.000000    
    105 O     c    0.961012 *   10.4975 *    0.0000 *   0.84819    1.000000    
    106 O     c    0.926211     10.4975      4.1990     0.84819    1.000000    
    107 O     c    0.750002     10.4975      8.3980     0.84819    1.000000    
    108 O     c    0.073791     10.4975     12.5969     0.84819    1.000000    
    109 O     c    0.897585 *   14.6964 *    0.0000 *   0.84819    1.000000    
    110 O     c    0.843584 *   14.6964 *    4.1990 *   0.84819    1.000000    
    111 O     c    0.750000 *   14.6964 *    8.3980 *   0.84819    1.000000    
    112 O     c    0.156416 *   14.6964 *   12.5969 *   0.84819    1.000000    
    113 O     c    0.147583 *    0.0000 *    2.0995 *   0.84819    1.000000    
    114 O     c    0.211010 *    0.0000 *    6.2985 *   0.84819    1.000000    
    115 O     c    0.788988 *    0.0000 *   10.4975 *   0.84819    1.000000    
    116 O     c    0.852415 *    0.0000 *   14.6964 *   0.84819    1.000000    
    117 O     c    0.093584 *    4.1990 *    2.0995 *   0.84819    1.000000    
    118 O     c    0.176209      4.1990      6.2985     0.84819    1.000000    
    119 O     c    0.823789      4.1990     10.4975     0.84819    1.000000    
    120 O     c    0.906416 *    4.1990 *   14.6964 *   0.84819    1.000000    
    121 O     c    0.000000 *    8.3980 *    2.0995 *   0.84819    1.000000    
    122 O     c    0.000002      8.3980      6.2985     0.84819    1.000000    
    123 O     c    0.999998      8.3980     10.4975     0.84819    1.000000    
    124 O     c    0.000000 *    8.3980 *   14.6964 *   0.84819    1.000000    
    125 O     c    0.906418 *   12.5969 *    2.0995 *   0.84819    1.000000    
    126 O     c    0.823794     12.5969      6.2985     0.84819    1.000000    
    127 O     c    0.176209     12.5969     10.4975     0.84819    1.000000    
    128 O     c    0.093584 *   12.5969 *   14.6964 *   0.84819    1.000000    
    129 O     s    0.624997 *    2.0995 *    2.0995 *  -2.84819    1.000000    
    130 O     s    0.698788 *    2.0995 *    6.2985 *  -2.84819    1.000000    
    131 O     s    0.301205 *    2.0995 *   10.4975 *  -2.84819    1.000000    
    132 O     s    0.374997 *    2.0995 *   14.6964 *  -2.84819    1.000000    
    133 O     s    0.551205 *    6.2985 *    2.0995 *  -2.84819    1.000000    
    134 O     s    0.624997      6.2985      6.2985    -2.84819    1.000000    
    135 O     s    0.374994      6.2985     10.4975    -2.84819    1.000000    
    136 O     s    0.448788 *    6.2985 *   14.6964 *  -2.84819    1.000000    
    137 O     s    0.448790 *   10.4975 *    2.0995 *  -2.84819    1.000000    
    138 O     s    0.375001     10.4975      6.2985    -2.84819    1.000000    
    139 O     s    0.624997     10.4975     10.4975    -2.84819    1.000000    
    140 O     s    0.551205 *   10.4975 *   14.6964 *  -2.84819    1.000000    
    141 O     s    0.374999 *   14.6964 *    2.0995 *  -2.84819    1.000000    
    142 O     s    0.301208 *   14.6964 *    6.2985 *  -2.84819    1.000000    
    143 O     s    0.698791 *   14.6964 *   10.4975 *  -2.84819    1.000000    
    144 O     s    0.624997 *   14.6964 *   14.6964 *  -2.84819    1.000000    
    145 O     s    0.624997 *    0.0000 *    0.0000 *  -2.84819    1.000000    
    146 O     s    0.676207 *    0.0000 *    4.1990 *  -2.84819    1.000000    
    147 O     s    0.749998 *    0.0000 *    8.3980 *  -2.84819    1.000000    
    148 O     s    0.323789 *    0.0000 *   12.5969 *  -2.84819    1.000000    
    149 O     s    0.573789 *    4.1990 *    0.0000 *  -2.84819    1.000000    
    150 O     s    0.624997 *    4.1990 *    4.1990 *  -2.84819    1.000000    
    151 O     s    0.749996      4.1990      8.3980    -2.84819    1.000000    
    152 O     s    0.374997 *    4.1990 *   12.5969 *  -2.84819    1.000000    
    153 O     s    0.499998 *    8.3980 *    0.0000 *  -2.84819    1.000000    
    154 O     s    0.500000      8.3980      4.1990    -2.84819    1.000000    
    155 O     s    0.624997      8.3980      8.3980    -2.84819    1.000000    
    156 O     s    0.499995      8.3980     12.5969    -2.84819    1.000000    
    157 O     s    0.426206 *   12.5969 *    0.0000 *  -2.84819    1.000000    
    158 O     s    0.374999 *   12.5969 *    4.1990 *  -2.84819    1.000000    
    159 O     s    0.250000     12.5969      8.3980    -2.84819    1.000000    
    160 O     s    0.624997 *   12.5969 *   12.5969 *  -2.84819    1.000000    
    161 O     s    0.102417 *    2.0995 *    0.0000 *  -2.84819    1.000000    
    162 O     s    0.156416 *    2.0995 *    4.1990 *  -2.84819    1.000000    
    163 O     s    0.250000 *    2.0995 *    8.3980 *  -2.84819    1.000000    
    164 O     s    0.843582 *    2.0995 *   12.5969 *  -2.84819    1.000000    
    165 O     s    0.038990 *    6.2985 *    0.0000 *  -2.84819    1.000000    
    166 O     s    0.073791      6.2985      4.1990    -2.84819    1.000000    
    167 O     s    0.249998      6.2985      8.3980    -2.84819    1.000000    
    168 O     s    0.926206      6.2985     12.5969    -2.84819    1.000000    
    169 O     s    0.961012 *   10.4975 *    0.0000 *  -2.84819    1.000000    
    170 O     s    0.926211     10.4975      4.1990    -2.84819    1.000000    
    171 O     s    0.750002     10.4975      8.3980    -2.84819    1.000000    
    172 O     s    0.073791     10.4975     12.5969    -2.84819    1.000000    
    173 O     s    0.897585 *   14.6964 *    0.0000 *  -2.84819    1.000000    
    174 O     s    0.843584 *   14.6964 *    4.1990 *  -2.84819    1.000000    
    175 O     s    0.750000 *   14.6964 *    8.3980 *  -2.84819    1.000000    
    176 O     s    0.156416 *   14.6964 *   12.5969 *  -2.84819    1.000000    
    177 O     s    0.147583 *    0.0000 *    2.0995 *  -2.84819    1.000000    
    178 O     s    0.211010 *    0.0000 *    6.2985 *  -2.84819    1.000000    
    179 O     s    0.788988 *    0.0000 *   10.4975 *  -2.84819    1.000000    
    180 O     s    0.852415 *    0.0000 *   14.6964 *  -2.84819    1.000000    
    181 O     s    0.093584 *    4.1990 *    2.0995 *  -2.84819    1.000000    
    182 O     s    0.176209      4.1990      6.2985    -2.84819    1.000000    
    183 O     s    0.823789      4.1990     10.4975    -2.84819    1.000000    
    184 O     s    0.906416 *    4.1990 *   14.6964 *  -2.84819    1.000000    
    185 O     s    0.000000 *    8.3980 *    2.0995 *  -2.84819    1.000000    
    186 O     s    0.000002      8.3980      6.2985    -2.84819    1.000000    
    187 O     s    0.999998      8.3980     10.4975    -2.84819    1.000000    
    188 O     s    0.000000 *    8.3980 *   14.6964 *  -2.84819    1.000000    
    189 O     s    0.906418 *   12.5969 *    2.0995 *  -2.84819    1.000000    
    190 O     s    0.823794     12.5969      6.2985    -2.84819    1.000000    
    191 O     s    0.176209     12.5969     10.4975    -2.84819    1.000000    
    192 O     s    0.093584 *   12.5969 *   14.6964 *  -2.84819    1.000000    
--------------------------------------------------------------------------------



********************************************************************************
*  General input information                                                   *
********************************************************************************

  Species output for all configurations : 

--------------------------------------------------------------------------------
  Species    Type    Atomic    Atomic    Charge       Radii (Angs)     Library
                     Number     Mass       (e)     Cova   Ionic  VDW   Symbol
--------------------------------------------------------------------------------
    Mg       Core       12      24.31   2.000000   1.100  0.000  1.640          
    O        Core        8      16.00   0.848190   0.730  0.000  1.360          
    O        Shell       8       0.00  -2.848190   0.730  0.000  1.360          
--------------------------------------------------------------------------------


  Lattice summation method               =    Ewald          (3-D)
                                         =    Parry          (2-D)
                                         =    Saunders et al (1-D)
  Accuracy factor for lattice sums       =   12.000


  Time limit = Infinity

  Maximum range for interatomic potentials =    100000.000000 Angstroms

  General interatomic potentials :

--------------------------------------------------------------------------------
Atom  Types   Potential      Parameter       Value         Units   Cutoffs(Ang)
  1     2                                                            Min /  Max 
--------------------------------------------------------------------------------
Mg   c O    s Buckingham    Buckingham A     1428.5000    eV        0.000 10.000
                            Buckingham rho  0.29453000    Ang       
                            Buckingham C     0.0000000    eV*Ang^6  
--------------------------------------------------------------------------------
O    s O    s Buckingham    Buckingham A     22764.000    eV        0.000 10.000
                            Buckingham rho  0.14900000    Ang       
                            Buckingham C     27.880000    eV*Ang^6  
--------------------------------------------------------------------------------
O    c O    s Spring (c-s)  Spring k 2       74.920380    eV*Ang^-2 0.000  0.800
                            Spring k 4       0.0000000    eV*Ang^-4 
--------------------------------------------------------------------------------

********************************************************************************
*  Output for configuration   1                                                *
********************************************************************************


  Components of energy : 

--------------------------------------------------------------------------------
  Interatomic potentials     =         366.02911596 eV    
  Monopole - monopole (real) =       -2924.88443677 eV    
  Monopole - monopole (recip)=           0.00000000 eV    
  Monopole - monopole (total)=       -2924.88443677 eV    
--------------------------------------------------------------------------------
  Total lattice energy       =       -2558.85532082 eV    
--------------------------------------------------------------------------------
  Total lattice energy       =         -246890.4228 kJ/(mole unit cells)
--------------------------------------------------------------------------------


  Number of variables =      387

  Maximum number of calculations  =          1000
  Maximum Hessian update interval =            10
  Maximum step size               =  10.000000000
  Maximum parameter tolerance     =   0.000010000
  Maximum function  tolerance     =   0.000010000
  Maximum gradient  tolerance     =   0.001000000
  Maximum gradient  component     =   0.010000000

  Symmetry not applied to optimisation

  Newton-Raphson optimiser to be used

  BFGS hessian update to be used

  Lower half triangular hessian to be used

  Minimiser to switch to RFO
  When gradient norm is less than     0.010000

  Dumpfile to be written after every cycle

  Start of polymer optimisation :

  Cycle:      0 Energy:     -2558.855321  Gnorm:      0.109976  CPU:    0.067
  ** Hessian calculated **
  Cycle:      1 Energy:     -2568.644173  Gnorm:      0.049903  CPU:    0.176
  Cycle:      2 Energy:     -2569.220066  Gnorm:      0.058476  CPU:    0.269
  Cycle:      3 Energy:     -2569.336529  Gnorm:      0.057544  CPU:    0.348
  ** Hessian calculated **
  Cycle:      4 Energy:     -2569.970665  Gnorm:      0.066126  CPU:    0.469
  Cycle:      5 Energy:     -2570.297566  Gnorm:      0.039675  CPU:    0.547
  Cycle:      6 Energy:     -2570.591656  Gnorm:      0.063245  CPU:    0.641
  Cycle:      7 Energy:     -2571.035881  Gnorm:      0.049882  CPU:    0.739
  Cycle:      8 Energy:     -2571.629721  Gnorm:      0.062412  CPU:    0.830
  Cycle:      9 Energy:     -2572.009818  Gnorm:      0.033555  CPU:    0.908
  Cycle:     10 Energy:     -2572.177169  Gnorm:      0.033676  CPU:    0.985
  Cycle:     11 Energy:     -2572.304268  Gnorm:      0.023496  CPU:    1.068
  Cycle:     12 Energy:     -2572.433091  Gnorm:      0.034903  CPU:    1.167
  Cycle:     13 Energy:     -2572.646815  Gnorm:      0.032102  CPU:    1.267
  ** Hessian calculated **
  Cycle:     14 Energy:     -2573.677146  Gnorm:      0.012955  CPU:    1.413
  Cycle:     15 Energy:     -2574.002745  Gnorm:      0.022395  CPU:    1.508
  ** Hessian calculated **
  Cycle:     16 Energy:     -2574.053064  Gnorm:      0.016309  CPU:    1.633
  Cycle:     17 Energy:     -2574.086384  Gnorm:      0.014628  CPU:    1.729
  Cycle:     18 Energy:     -2574.104871  Gnorm:      0.010964  CPU:    1.807
  Cycle:     19 Energy:     -2574.131909  Gnorm:      0.019995  CPU:    1.897
  Cycle:     20 Energy:     -2574.193355  Gnorm:      0.016081  CPU:    1.991
  Cycle:     21 Energy:     -2574.235183  Gnorm:      0.016005  CPU:    2.069
  Cycle:     22 Energy:     -2574.265589  Gnorm:      0.009164  CPU:    2.151
  ** Hessian has required structure
  Cycle:     23 Energy:     -2574.269030  Gnorm:      0.009390  CPU:    2.328
  ** Hessian has required structure
  Cycle:     24 Energy:     -2574.285959  Gnorm:      0.010364  CPU:    2.501
  ** Hessian has required structure
  Cycle:     25 Energy:     -2574.289520  Gnorm:      0.004668  CPU:    2.677
  ** Hessian has required structure
  Cycle:     26 Energy:     -2574.497890  Gnorm:      0.002844  CPU:    2.902
  ** Hessian has required structure
  Cycle:     27 Energy:     -2574.564030  Gnorm:      0.001229  CPU:    3.077
  ** Hessian has required structure
  Cycle:     28 Energy:     -2574.570612  Gnorm:      0.000351  CPU:    3.251
  ** Hessian has required structure
  Cycle:     29 Energy:     -2574.571172  Gnorm:      0.000141  CPU:    3.428
  ** Hessian has required structure
  Cycle:     30 Energy:     -2574.571300  Gnorm:      0.000095  CPU:    3.619
  ** Hessian has required structure
  Cycle:     31 Energy:     -2574.571311  Gnorm:      0.000015  CPU:    3.781
  ** Hessian has required structure


  **** Optimisation achieved ****


  Final energy =   -2574.57131185 eV
  Final Gnorm  =       0.00000331

  Components of energy : 

--------------------------------------------------------------------------------
  Interatomic potentials     =         398.22490703 eV    
  Monopole - monopole (real) =       -2972.79621888 eV    
  Monopole - monopole (recip)=           0.00000000 eV    
  Monopole - monopole (total)=       -2972.79621888 eV    
--------------------------------------------------------------------------------
  Total lattice energy       =       -2574.57131185 eV    
--------------------------------------------------------------------------------
  Total lattice energy       =         -248406.7757 kJ/(mole unit cells)
--------------------------------------------------------------------------------

  Final fractional/Cartesian coordinates of atoms :

--------------------------------------------------------------------------------
   No.  Atomic        x           y          z          Radius
        Label       (Frac)      (Angs)     (Angs)       (Angs) 
--------------------------------------------------------------------------------
     1  Mg    c     0.065200    0.192899    0.210197    0.000000
     2  Mg    c     0.077280    0.056633    4.249706    0.000000
     3  Mg    c     0.061339    0.069589    8.353601    0.000000
     4  Mg    c     0.965616    0.105931   12.456858    0.000000
     5  Mg    c     0.052903    4.230980    0.030155    0.000000
     6  Mg    c     0.107930    4.227848    4.202155    0.000000
     7  Mg    c     0.249998    4.198980    8.397960    0.000000
     8  Mg    c     0.898130    4.244213   12.594901    0.000000
     9  Mg    c     0.992427    8.355976    0.037297    0.000000
    10  Mg    c     0.000002    8.397960    4.198980    0.000000
    11  Mg    c     0.124999    8.397960    8.397960    0.000000
    12  Mg    c     0.999998    8.397960   12.596930    0.000000
    13  Mg    c     0.927146   12.465048    0.023817    0.000000
    14  Mg    c     0.883073   12.565838    4.180354    0.000000
    15  Mg    c     0.750002   12.596930    8.397960    0.000000
    16  Mg    c     0.110623   12.456313   12.774729    0.000000
    17  Mg    c     0.072221    2.174954    2.173475    0.000000
    18  Mg    c     0.112199    2.126527    6.319562    0.000000
    19  Mg    c     0.938343    2.194384   10.434152    0.000000
    20  Mg    c     0.951603    2.170060   14.586630    0.000000
    21  Mg    c     0.043432    6.296009    2.112075    0.000000
    22  Mg    c     0.124999    6.298470    6.298470    0.000000
    23  Mg    c     0.874996    6.298470   10.497450    0.000000
    24  Mg    c     0.959665    6.265935   14.680355    0.000000
    25  Mg    c     0.945857   10.446834    2.114281    0.000000
    26  Mg    c     0.875004   10.497450    6.298470    0.000000
    27  Mg    c     0.124999   10.497450   10.497450    0.000000
    28  Mg    c     0.054999   10.334676   14.739308    0.000000
    29  Mg    c     0.897885   14.589714    2.086475    0.000000
    30  Mg    c     0.828854   14.639967    6.195508    0.000000
    31  Mg    c     0.135188   14.513299   10.956302    0.000000
    32  Mg    c     0.098004   14.317965   14.898745    0.000000
    33  Mg    c     0.570375    0.087644    2.195654    0.000000
    34  Mg    c     0.579558    0.020952    6.297861    0.000000
    35  Mg    c     0.481114    0.119104   10.416945    0.000000
    36  Mg    c     0.460893    0.192373   14.439662    0.000000
    37  Mg    c     0.570932    4.232116    2.116050    0.000000
    38  Mg    c     0.676204    4.198980    6.298470    0.000000
    39  Mg    c     0.323787    4.198980   10.497450    0.000000
    40  Mg    c     0.437477    4.216958   14.677259    0.000000
    41  Mg    c     0.495108    8.371273    2.123627    0.000000
    42  Mg    c     0.500000    8.397960    6.298470    0.000000
    43  Mg    c     0.499995    8.397960   10.497450    0.000000
    44  Mg    c     0.507935    8.318280   14.661761    0.000000
    45  Mg    c     0.412675   12.505975    2.112046    0.000000
    46  Mg    c     0.323792   12.596930    6.298470    0.000000
    47  Mg    c     0.676207   12.596930   10.497450    0.000000
    48  Mg    c     0.586585   12.343130   14.864642    0.000000
    49  Mg    c     0.562030    2.175488    0.079607    0.000000
    50  Mg    c     0.589554    2.149349    4.243733    0.000000
    51  Mg    c     0.609850    2.117366    8.334442    0.000000
    52  Mg    c     0.444068    2.199252   12.484805    0.000000
    53  Mg    c     0.528675    6.291894    0.028081    0.000000
    54  Mg    c     0.573789    6.298470    4.198980    0.000000
    55  Mg    c     0.749996    6.298470    8.397960    0.000000
    56  Mg    c     0.426204    6.298470   12.596930    0.000000
    57  Mg    c     0.455450   10.411919    0.028538    0.000000
    58  Mg    c     0.426206   10.497450    4.198980    0.000000
    59  Mg    c     0.250000   10.497450    8.397960    0.000000
    60  Mg    c     0.573789   10.497450   12.596930    0.000000
    61  Mg    c     0.412510   14.449610    0.104478    0.000000
    62  Mg    c     0.370323   14.631371    4.137124    0.000000
    63  Mg    c     0.296990   14.561012    8.152815    0.000000
    64  Mg    c     0.613539   14.487492   12.909229    0.000000
    65  O     c     0.572243    2.174973    2.174532    0.000000
    66  O     c     0.612284    2.125483    6.310708    0.000000
    67  O     c     0.437626    2.196260   10.412114    0.000000
    68  O     c     0.451555    2.179063   14.617948    0.000000
    69  O     c     0.543559    6.297942    2.113282    0.000000
    70  O     c     0.624997    6.298470    6.298470    0.000000
    71  O     c     0.374994    6.298470   10.497450    0.000000
    72  O     c     0.459500    6.267394   14.710298    0.000000
    73  O     c     0.445734   10.443587    2.115442    0.000000
    74  O     c     0.375001   10.497450    6.298470    0.000000
    75  O     c     0.624997   10.497450   10.497450    0.000000
    76  O     c     0.555256   10.333347   14.763389    0.000000
    77  O     c     0.397926   14.623844    2.095998    0.000000
    78  O     c     0.328916   14.678105    6.178461    0.000000
    79  O     c     0.635739   14.556311   10.919808    0.000000
    80  O     c     0.598125   14.355757   14.930794    0.000000
    81  O     c     0.565221    0.155346    0.173940    0.000000
    82  O     c     0.577317    0.026036    4.247130    0.000000
    83  O     c     0.561722    0.034895    8.358901    0.000000
    84  O     c     0.465519    0.074788   12.447012    0.000000
    85  O     c     0.553069    4.229843   -0.000889    0.000000
    86  O     c     0.608048    4.228337    4.203401    0.000000
    87  O     c     0.749996    4.198980    8.397960    0.000000
    88  O     c     0.397566    4.245010   12.591134    0.000000
    89  O     c     0.492446    8.354986    0.007787    0.000000
    90  O     c     0.500000    8.397960    4.198980    0.000000
    91  O     c     0.624997    8.397960    8.397960    0.000000
    92  O     c     0.499995    8.397960   12.596930    0.000000
    93  O     c     0.427112   12.454453   -0.009133    0.000000
    94  O     c     0.383162   12.562196    4.185962    0.000000
    95  O     c     0.250000   12.596930    8.397960    0.000000
    96  O     c     0.610900   12.459302   12.756386    0.000000
    97  O     c     0.062070    2.185059    0.046840    0.000000
    98  O     c     0.089542    2.149350    4.246858    0.000000
    99  O     c     0.110345    2.128158    8.356319    0.000000
   100  O     c     0.944115    2.198792   12.489066    0.000000
   101  O     c     0.028757    6.292923   -0.002475    0.000000
   102  O     c     0.073791    6.298470    4.198980    0.000000
   103  O     c     0.249998    6.298470    8.397960    0.000000
   104  O     c     0.926206    6.298470   12.596930    0.000000
   105  O     c     0.955280   10.412494   -0.001943    0.000000
   106  O     c     0.926211   10.497450    4.198980    0.000000
   107  O     c     0.750002   10.497450    8.397960    0.000000
   108  O     c     0.073791   10.497450   12.596930    0.000000
   109  O     c     0.912509   14.486525    0.067153    0.000000
   110  O     c     0.870348   14.664073    4.138579    0.000000
   111  O     c     0.796253   14.598417    8.194882    0.000000
   112  O     c     0.113439   14.527170   12.918419    0.000000
   113  O     c     0.070398    0.055738    2.205768    0.000000
   114  O     c     0.079757   -0.007440    6.299094    0.000000
   115  O     c     0.980519    0.090592   10.413409    0.000000
   116  O     c     0.960845    0.153273   14.475754    0.000000
   117  O     c     0.071097    4.233243    2.116792    0.000000
   118  O     c     0.176209    4.198980    6.298470    0.000000
   119  O     c     0.823789    4.198980   10.497450    0.000000
   120  O     c     0.937247    4.214967   14.709242    0.000000
   121  O     c     0.995098    8.370939    2.124008    0.000000
   122  O     c     0.000002    8.397960    6.298470    0.000000
   123  O     c     0.999998    8.397960   10.497450    0.000000
   124  O     c     0.007957    8.313542   14.691790    0.000000
   125  O     c     0.912654   12.505761    2.112542    0.000000
   126  O     c     0.823794   12.596930    6.298470    0.000000
   127  O     c     0.176209   12.596930   10.497450    0.000000
   128  O     c     0.086602   12.333921   14.902474    0.000000
   129  O     s     0.572308    2.177309    2.176101    0.000000
   130  O     s     0.612362    2.126979    6.315397    0.000000
   131  O     s     0.437959    2.197690   10.424137    0.000000
   132  O     s     0.451430    2.174208   14.594510    0.000000
   133  O     s     0.543521    6.296416    2.112998    0.000000
   134  O     s     0.624997    6.298470    6.298470    0.000000
   135  O     s     0.374994    6.298470   10.497450    0.000000
   136  O     s     0.459506    6.266665   14.686903    0.000000
   137  O     s     0.445770   10.445455    2.115524    0.000000
   138  O     s     0.375001   10.497450    6.298470    0.000000
   139  O     s     0.624997   10.497450   10.497450    0.000000
   140  O     s     0.555209   10.336009   14.745284    0.000000
   141  O     s     0.397912   14.598607    2.091167    0.000000
   142  O     s     0.328897   14.650010    6.187679    0.000000
   143  O     s     0.635873   14.522703   10.948422    0.000000
   144  O     s     0.598197   14.325101   14.898680    0.000000
   145  O     s     0.565255    0.186033    0.204142    0.000000
   146  O     s     0.577373    0.048727    4.247355    0.000000
   147  O     s     0.561521    0.060228    8.355787    0.000000
   148  O     s     0.465466    0.099175   12.451585    0.000000
   149  O     s     0.553063    4.229077    0.022932    0.000000
   150  O     s     0.607721    4.228523    4.201835    0.000000
   151  O     s     0.749996    4.198980    8.397960    0.000000
   152  O     s     0.398159    4.244393   12.592136    0.000000
   153  O     s     0.492456    8.355707    0.030851    0.000000
   154  O     s     0.500000    8.397960    4.198980    0.000000
   155  O     s     0.624997    8.397960    8.397960    0.000000
   156  O     s     0.499995    8.397960   12.596930    0.000000
   157  O     s     0.427140   12.460350    0.015383    0.000000
   158  O     s     0.383308   12.562346    4.181164    0.000000
   159  O     s     0.250000   12.596930    8.397960    0.000000
   160  O     s     0.610423   12.451805   12.766204    0.000000
   161  O     s     0.062088    2.179663    0.071101    0.000000
   162  O     s     0.089687    2.150449    4.246270    0.000000
   163  O     s     0.109811    2.121079    8.341980    0.000000
   164  O     s     0.943768    2.201734   12.486047    0.000000
   165  O     s     0.028756    6.292464    0.021039    0.000000
   166  O     s     0.073791    6.298470    4.198980    0.000000
   167  O     s     0.249998    6.298470    8.397960    0.000000
   168  O     s     0.926206    6.298470   12.596930    0.000000
   169  O     s     0.955276   10.413510    0.021388    0.000000
   170  O     s     0.926211   10.497450    4.198980    0.000000
   171  O     s     0.750002   10.497450    8.397960    0.000000
   172  O     s     0.073791   10.497450   12.596930    0.000000
   173  O     s     0.912509   14.456438    0.098128    0.000000
   174  O     s     0.870302   14.638803    4.138203    0.000000
   175  O     s     0.796157   14.567124    8.164148    0.000000
   176  O     s     0.113554   14.497062   12.912799    0.000000
   177  O     s     0.070434    0.080375    2.200494    0.000000
   178  O     s     0.079788    0.015206    6.298574    0.000000
   179  O     s     0.980807    0.113413   10.418122    0.000000
   180  O     s     0.960766    0.184519   14.445435    0.000000
   181  O     s     0.070997    4.232412    2.117041    0.000000
   182  O     s     0.176209    4.198980    6.298470    0.000000
   183  O     s     0.823789    4.198980   10.497450    0.000000
   184  O     s     0.937362    4.214963   14.685044    0.000000
   185  O     s     0.995117    8.370979    2.124720    0.000000
   186  O     s     0.000002    8.397960    6.298470    0.000000
   187  O     s     0.999998    8.397960   10.497450    0.000000
   188  O     s     0.007919    8.317162   14.668209    0.000000
   189  O     s     0.912704   12.504217    2.113692    0.000000
   190  O     s     0.823794   12.596930    6.298470    0.000000
   191  O     s     0.176209   12.596930   10.497450    0.000000
   192  O     s     0.086493   12.338638   14.878467    0.000000
--------------------------------------------------------------------------------

  Final Cartesian polymer vector (Angstroms) :

        4.198998    0.000000    0.000000


  Final polymer cell parameter and derivative :

--------------------------------------------------------------------------------
       a            4.198998 Angstrom     dE/de1(xx)     0.000000 eV/strain
--------------------------------------------------------------------------------

  Final internal/Cartesian derivatives :

--------------------------------------------------------------------------------
   No.  Atomic          a             y             z           Radius
        Label          (eV)       (eV/Angs)     (eV/Angs)      (eV/Angs)
--------------------------------------------------------------------------------
      1 Mg    c       0.000004      0.000001     -0.000010      0.000000
      2 Mg    c      -0.000030      0.000002      0.000032      0.000000
      3 Mg    c       0.000063     -0.000044      0.000062      0.000000
      4 Mg    c       0.000048      0.000006      0.000107      0.000000
      5 Mg    c       0.000007      0.000005     -0.000006      0.000000
      6 Mg    c       0.000037      0.000004      0.000014      0.000000
      7 Mg    c       0.000000      0.000000      0.000000      0.000000
      8 Mg    c      -0.000062     -0.000047     -0.000129      0.000000
      9 Mg    c       0.000006     -0.000000      0.000002      0.000000
     10 Mg    c       0.000000      0.000000      0.000000      0.000000
     11 Mg    c       0.000000      0.000000      0.000000      0.000000
     12 Mg    c       0.000000      0.000000      0.000000      0.000000
     13 Mg    c      -0.000027      0.000001     -0.000000      0.000000
     14 Mg    c       0.000004     -0.000003     -0.000006      0.000000
     15 Mg    c       0.000000      0.000000      0.000000      0.000000
     16 Mg    c       0.000023     -0.000012      0.000006      0.000000
     17 Mg    c       0.000046      0.000002     -0.000007      0.000000
     18 Mg    c      -0.000051      0.000003      0.000066      0.000000
     19 Mg    c       0.000041     -0.000104      0.000027      0.000000
     20 Mg    c       0.000051     -0.000008     -0.000005      0.000000
     21 Mg    c      -0.000007      0.000006      0.000005      0.000000
     22 Mg    c       0.000000      0.000000      0.000000      0.000000
     23 Mg    c       0.000000      0.000000      0.000000      0.000000
     24 Mg    c      -0.000033      0.000028     -0.000015      0.000000
     25 Mg    c      -0.000012     -0.000001      0.000003      0.000000
     26 Mg    c       0.000000      0.000000      0.000000      0.000000
     27 Mg    c       0.000000      0.000000      0.000000      0.000000
     28 Mg    c       0.000042      0.000006     -0.000008      0.000000
     29 Mg    c      -0.000006     -0.000001     -0.000001      0.000000
     30 Mg    c      -0.000011      0.000001      0.000006      0.000000
     31 Mg    c      -0.000028     -0.000001     -0.000009      0.000000
     32 Mg    c       0.000019      0.000003      0.000003      0.000000
     33 Mg    c      -0.000017     -0.000004     -0.000018      0.000000
     34 Mg    c      -0.000153      0.000038      0.000075      0.000000
     35 Mg    c      -0.000288      0.000035      0.000082      0.000000
     36 Mg    c       0.000026      0.000000     -0.000016      0.000000
     37 Mg    c       0.000038      0.000005      0.000003      0.000000
     38 Mg    c       0.000000      0.000000      0.000000      0.000000
     39 Mg    c       0.000000      0.000000      0.000000      0.000000
     40 Mg    c      -0.000075     -0.000010      0.000049      0.000000
     41 Mg    c      -0.000002      0.000001      0.000003      0.000000
     42 Mg    c       0.000000      0.000000      0.000000      0.000000
     43 Mg    c       0.000000      0.000000      0.000000      0.000000
     44 Mg    c       0.000061      0.000055     -0.000008      0.000000
     45 Mg    c      -0.000019     -0.000003     -0.000001      0.000000
     46 Mg    c       0.000000      0.000000      0.000000      0.000000
     47 Mg    c       0.000000      0.000000      0.000000      0.000000
     48 Mg    c       0.000004     -0.000005      0.000001      0.000000
     49 Mg    c       0.000018      0.000001     -0.000007      0.000000
     50 Mg    c       0.000066      0.000006      0.000002      0.000000
     51 Mg    c       0.000432      0.000070     -0.000186      0.000000
     52 Mg    c       0.000123     -0.000046     -0.000012      0.000000
     53 Mg    c      -0.000007      0.000005      0.000000      0.000000
     54 Mg    c       0.000000      0.000000      0.000000      0.000000
     55 Mg    c       0.000000      0.000000      0.000000      0.000000
     56 Mg    c       0.000000      0.000000      0.000000      0.000000
     57 Mg    c       0.000003     -0.000000      0.000002      0.000000
     58 Mg    c       0.000000      0.000000      0.000000      0.000000
     59 Mg    c       0.000000      0.000000      0.000000      0.000000
     60 Mg    c       0.000000      0.000000      0.000000      0.000000
     61 Mg    c      -0.000002      0.000000     -0.000002      0.000000
     62 Mg    c      -0.000008      0.000001      0.000004      0.000000
     63 Mg    c       0.000022     -0.000001      0.000004      0.000000
     64 Mg    c       0.000023      0.000000     -0.000008      0.000000
     65 O     c      -0.000001      0.000002     -0.000005      0.000000
     66 O     c      -0.000099     -0.000060      0.000076      0.000000
     67 O     c      -0.000114     -0.000033      0.000108      0.000000
     68 O     c      -0.000019     -0.000002      0.000032      0.000000
     69 O     c       0.000000      0.000002      0.000002      0.000000
     70 O     c       0.000000      0.000000      0.000000      0.000000
     71 O     c       0.000000      0.000000      0.000000      0.000000
     72 O     c       0.000037     -0.000005     -0.000025      0.000000
     73 O     c      -0.000001      0.000002      0.000001      0.000000
     74 O     c       0.000000      0.000000      0.000000      0.000000
     75 O     c       0.000000      0.000000      0.000000      0.000000
     76 O     c      -0.000015      0.000004     -0.000003      0.000000
     77 O     c       0.000000      0.000000     -0.000004      0.000000
     78 O     c      -0.000028     -0.000004     -0.000002      0.000000
     79 O     c       0.000017     -0.000006     -0.000003      0.000000
     80 O     c       0.000008     -0.000002      0.000004      0.000000
     81 O     c       0.000006     -0.000000     -0.000004      0.000000
     82 O     c      -0.000019     -0.000003      0.000015      0.000000
     83 O     c      -0.000212      0.000057     -0.000051      0.000000
     84 O     c       0.000071      0.000009      0.000025      0.000000
     85 O     c      -0.000010      0.000002      0.000005      0.000000
     86 O     c       0.000036      0.000016     -0.000003      0.000000
     87 O     c       0.000000      0.000000      0.000000      0.000000
     88 O     c       0.000028     -0.000060     -0.000089      0.000000
     89 O     c      -0.000005      0.000002      0.000001      0.000000
     90 O     c       0.000000      0.000000      0.000000      0.000000
     91 O     c       0.000000      0.000000      0.000000      0.000000
     92 O     c       0.000000      0.000000      0.000000      0.000000
     93 O     c       0.000004      0.000001      0.000004      0.000000
     94 O     c      -0.000002      0.000001     -0.000004      0.000000
     95 O     c       0.000000      0.000000      0.000000      0.000000
     96 O     c      -0.000012      0.000012     -0.000003      0.000000
     97 O     c       0.000002      0.000002      0.000000      0.000000
     98 O     c      -0.000090     -0.000016      0.000009      0.000000
     99 O     c      -0.000189      0.000080     -0.000038      0.000000
    100 O     c      -0.000078      0.000011      0.000051      0.000000
    101 O     c       0.000019      0.000003      0.000002      0.000000
    102 O     c       0.000000      0.000000      0.000000      0.000000
    103 O     c       0.000000      0.000000      0.000000      0.000000
    104 O     c       0.000000      0.000000      0.000000      0.000000
    105 O     c      -0.000004      0.000003      0.000003      0.000000
    106 O     c       0.000000      0.000000      0.000000      0.000000
    107 O     c       0.000000      0.000000      0.000000      0.000000
    108 O     c       0.000000      0.000000      0.000000      0.000000
    109 O     c      -0.000013     -0.000001      0.000002      0.000000
    110 O     c      -0.000007     -0.000002     -0.000005      0.000000
    111 O     c       0.000002      0.000008      0.000005      0.000000
    112 O     c       0.000018     -0.000003     -0.000000      0.000000
    113 O     c       0.000001     -0.000000     -0.000008      0.000000
    114 O     c      -0.000040     -0.000003      0.000015      0.000000
    115 O     c       0.000165     -0.000015     -0.000066      0.000000
    116 O     c       0.000017      0.000009     -0.000007      0.000000
    117 O     c      -0.000017      0.000005     -0.000002      0.000000
    118 O     c       0.000000      0.000000      0.000000      0.000000
    119 O     c       0.000000      0.000000      0.000000      0.000000
    120 O     c       0.000028     -0.000056      0.000004      0.000000
    121 O     c       0.000007      0.000000      0.000003      0.000000
    122 O     c       0.000000      0.000000      0.000000      0.000000
    123 O     c       0.000000      0.000000      0.000000      0.000000
    124 O     c      -0.000013      0.000011     -0.000009      0.000000
    125 O     c       0.000011      0.000000     -0.000001      0.000000
    126 O     c       0.000000      0.000000      0.000000      0.000000
    127 O     c       0.000000      0.000000      0.000000      0.000000
    128 O     c      -0.000001      0.000003     -0.000002      0.000000
    129 O     s       0.000029      0.000004     -0.000007      0.000000
    130 O     s       0.000165     -0.000006      0.000069      0.000000
    131 O     s       0.000024     -0.000044      0.000008      0.000000
    132 O     s       0.000103     -0.000019     -0.000024      0.000000
    133 O     s       0.000001     -0.000001     -0.000003      0.000000
    134 O     s       0.000000      0.000000      0.000000      0.000000
    135 O     s       0.000000      0.000000      0.000000      0.000000
    136 O     s      -0.000077      0.000013      0.000024      0.000000
    137 O     s      -0.000005      0.000003     -0.000004      0.000000
    138 O     s       0.000000      0.000000      0.000000      0.000000
    139 O     s       0.000000      0.000000      0.000000      0.000000
    140 O     s       0.000042      0.000006      0.000007      0.000000
    141 O     s      -0.000002     -0.000002     -0.000002      0.000000
    142 O     s       0.000017      0.000003     -0.000001      0.000000
    143 O     s      -0.000009     -0.000003     -0.000009      0.000000
    144 O     s       0.000012     -0.000002      0.000006      0.000000
    145 O     s       0.000004      0.000003     -0.000007      0.000000
    146 O     s      -0.000019     -0.000007      0.000029      0.000000
    147 O     s       0.000591     -0.000087     -0.000214      0.000000
    148 O     s      -0.000102      0.000017      0.000039      0.000000
    149 O     s       0.000030      0.000004     -0.000010      0.000000
    150 O     s      -0.000028     -0.000022      0.000020      0.000000
    151 O     s       0.000000      0.000000      0.000000      0.000000
    152 O     s      -0.000078      0.000038     -0.000035      0.000000
    153 O     s       0.000003      0.000000     -0.000001      0.000000
    154 O     s       0.000000      0.000000      0.000000      0.000000
    155 O     s       0.000000      0.000000      0.000000      0.000000
    156 O     s       0.000000      0.000000      0.000000      0.000000
    157 O     s      -0.000014      0.000001      0.000002      0.000000
    158 O     s       0.000006      0.000005     -0.000005      0.000000
    159 O     s       0.000000      0.000000      0.000000      0.000000
    160 O     s       0.000021      0.000006     -0.000000      0.000000
    161 O     s       0.000014      0.000005     -0.000010      0.000000
    162 O     s       0.000132      0.000012     -0.000022      0.000000
    163 O     s       0.000525     -0.000017      0.000025      0.000000
    164 O     s       0.000132     -0.000051     -0.000067      0.000000
    165 O     s      -0.000018     -0.000000     -0.000003      0.000000
    166 O     s       0.000000      0.000000      0.000000      0.000000
    167 O     s       0.000000      0.000000      0.000000      0.000000
    168 O     s       0.000000      0.000000      0.000000      0.000000
    169 O     s      -0.000000     -0.000000     -0.000001      0.000000
    170 O     s       0.000000      0.000000      0.000000      0.000000
    171 O     s       0.000000      0.000000      0.000000      0.000000
    172 O     s       0.000000      0.000000      0.000000      0.000000
    173 O     s      -0.000005     -0.000001      0.000002      0.000000
    174 O     s       0.000014      0.000002     -0.000005      0.000000
    175 O     s      -0.000007     -0.000001      0.000010      0.000000
    176 O     s      -0.000015     -0.000001      0.000000      0.000000
    177 O     s      -0.000038     -0.000002     -0.000010      0.000000
    178 O     s      -0.000015      0.000001      0.000031      0.000000
    179 O     s      -0.000281      0.000082     -0.000195      0.000000
    180 O     s       0.000042      0.000005      0.000014      0.000000
    181 O     s       0.000042     -0.000001     -0.000003      0.000000
    182 O     s       0.000000      0.000000      0.000000      0.000000
    183 O     s       0.000000      0.000000      0.000000      0.000000
    184 O     s      -0.000083      0.000009      0.000031      0.000000
    185 O     s      -0.000008      0.000002     -0.000007      0.000000
    186 O     s       0.000000      0.000000      0.000000      0.000000
    187 O     s       0.000000      0.000000      0.000000      0.000000
    188 O     s       0.000047      0.000034      0.000012      0.000000
    189 O     s      -0.000025      0.000001     -0.000002      0.000000
    190 O     s       0.000000      0.000000      0.000000      0.000000
    191 O     s       0.000000      0.000000      0.000000      0.000000
    192 O     s      -0.000003      0.000004      0.000000      0.000000
--------------------------------------------------------------------------------
  Maximum abs         0.000591      0.000104      0.000214      0.000000
--------------------------------------------------------------------------------


  Time to end of optimisation =       3.9671 seconds


  Peak dynamic memory used =       4.19 MB 


  Timing analysis for GULP :

--------------------------------------------------------------------------------
  Task / Subroutine                                          Time (Seconds)
--------------------------------------------------------------------------------
  Calculation of real space energy and derivatives                2.9705
  Calculation and manipulation of Hessian matrix                  0.8451
  Calculation of matrix inversion                                 0.0515
--------------------------------------------------------------------------------
  Total CPU time                                                  3.9671
--------------------------------------------------------------------------------


  Dump file written as example32.grs


  Job Finished at 15:36.06  4th July       2018                               

