********************************************************************************
*                       GENERAL UTILITY LATTICE PROGRAM                        *
*                                 Julian Gale                                  *
*                       Curtin Institute for Computation                       *
*                           Department of Chemistry                            *
*                    Curtin University, Western Australia                      *
********************************************************************************
* Version = 5.1.0 * Last modified =   4th July 2018                            *
********************************************************************************
*  optimise     - perform optimisation run                                     *
*  ocell        - use cell parameters as the optimisation variables            *
*  phonon       - calculate phonons for final geometry                         *
*  nomodcoord   - do not mod input coordinates                                 *
*  rfo          - optimisation step to be determined by RFO method             *
********************************************************************************

  Job Started  at 15:43.03  4th July       2018                               

  Number of CPUs =     1

  Host name      = M-A0010516-S                            


  Total number of configurations input =      1

********************************************************************************
*  Input for Configuration =   1                                               *
********************************************************************************

  Formula = Mg8O8                                                       

  Number of irreducible atoms/shells =      16


  Total number atoms/shells =      16

  Dimensionality = 3               :  Bulk   



  Cartesian lattice vectors (Angstroms) :

        4.225106    0.000000    0.000000
        0.000000    4.225106    0.000000
        0.000000    0.000000    8.500000

  Cell parameters (Angstroms/Degrees):

  a =       4.2251    alpha =  90.0000
  b =       4.2251    beta  =  90.0000
  c =       8.5000    gamma =  90.0000

  Initial cell volume =         151.737926 Angs**3

  Temperature of configuration =  0.000     K 

  Pressure of configuration =         0.000 GPa 

  Fractional coordinates of asymmetric unit :

--------------------------------------------------------------------------------
   No.  Atomic       x           y          z         Charge      Occupancy
        Label      (Frac)      (Frac)     (Frac)        (e)         (Frac)  
--------------------------------------------------------------------------------
      1 Mg    c    0.000000    0.000000    0.000000     2.00000    1.000000    
      2 Mg    c    0.000000 *  0.000000 *  0.500000 *   2.00000    1.000000    
      3 Mg    c    0.000000 *  0.500000 *  0.250000 *   2.00000    1.000000    
      4 Mg    c    0.000000 *  0.500000 *  0.750000 *   2.00000    1.000000    
      5 Mg    c    0.500000 *  0.000000 *  0.250000 *   2.00000    1.000000    
      6 Mg    c    0.500000 *  0.000000 *  0.750000 *   2.00000    1.000000    
      7 Mg    c    0.500000 *  0.500000 *  0.000000 *   2.00000    1.000000    
      8 Mg    c    0.500000 *  0.500000 *  0.500000 *   2.00000    1.000000    
      9 O     c    0.500000 *  0.500000 *  0.250000 *  -2.00000    1.000000    
     10 O     c    0.500000 *  0.500000 *  0.750000 *  -2.00000    1.000000    
     11 O     c    0.500000 *  0.000000 *  0.000000 *  -2.00000    1.000000    
     12 O     c    0.500000 *  0.000000 *  0.500000 *  -2.00000    1.000000    
     13 O     c    0.000000 *  0.500000 *  0.000000 *  -2.00000    1.000000    
     14 O     c    0.000000 *  0.500000 *  0.500000 *  -2.00000    1.000000    
     15 O     c    0.000000 *  0.000000 *  0.250000 *  -2.00000    1.000000    
     16 O     c    0.000000 *  0.000000 *  0.750000 *  -2.00000    1.000000    
--------------------------------------------------------------------------------


  Brillouin zone sampling points :

--------------------------------------------------------------------------------
  Point number          x          y          z            Weight
--------------------------------------------------------------------------------
        1           0.000000   0.000000   0.000000     1.00000000
--------------------------------------------------------------------------------


********************************************************************************
*  General input information                                                   *
********************************************************************************

  Species output for all configurations : 

--------------------------------------------------------------------------------
  Species    Type    Atomic    Atomic    Charge       Radii (Angs)     Library
                     Number     Mass       (e)     Cova   Ionic  VDW   Symbol
--------------------------------------------------------------------------------
    Mg       Core       12      24.31   2.000000   1.100  0.000  1.640          
    O        Core        8      16.00  -2.000000   0.730  0.000  1.360          
--------------------------------------------------------------------------------


  Lattice summation method               =    Ewald          (3-D)
                                         =    Parry          (2-D)
                                         =    Saunders et al (1-D)
  Accuracy factor for lattice sums       =   12.000


  Time limit = Infinity

  Maximum range for interatomic potentials =    100000.000000 Angstroms

  General interatomic potentials :

--------------------------------------------------------------------------------
Atom  Types   Potential      Parameter       Value         Units   Cutoffs(Ang)
  1     2                                                            Min /  Max 
--------------------------------------------------------------------------------
O    c Mg   c Buckingham    Buckingham A     1346.6000    eV        0.000  8.000
                            Buckingham rho  0.29840000    Ang       
                            Buckingham C     0.0000000    eV*Ang^6  
--------------------------------------------------------------------------------
O    c O    c Buckingham    Buckingham A     22764.300    eV        0.000  8.000
                            Buckingham rho  0.14900000    Ang       
                            Buckingham C     20.370000    eV*Ang^6  
--------------------------------------------------------------------------------

********************************************************************************
*  Output for configuration   1                                                *
********************************************************************************


  Repeat cell scan for     41 points

  Scan vector for cell parameters:

  a     =     0.000000  b    =     0.000000  c     =     0.000000
  alpha =    20.000000  beta =    20.000000  gamma =     0.000000


################################################################################
#  Output for cell point     0                                                 #
################################################################################


  Components of energy : 

--------------------------------------------------------------------------------
  Interatomic potentials     =          52.51578835 eV    
  Monopole - monopole (real) =        -162.80688474 eV    
  Monopole - monopole (recip)=        -217.63469762 eV    
  Monopole - monopole (total)=        -380.44158236 eV    
--------------------------------------------------------------------------------
  Total lattice energy       =        -327.92579402 eV    
--------------------------------------------------------------------------------
  Total lattice energy       =          -31639.8263 kJ/(mole unit cells)
--------------------------------------------------------------------------------


  Number of variables =       48

  Maximum number of calculations  =          1000
  Maximum Hessian update interval =            10
  Maximum step size               =  10.000000000
  Maximum parameter tolerance     =   0.000010000
  Maximum function  tolerance     =   0.000010000
  Maximum gradient  tolerance     =   0.001000000
  Maximum gradient  component     =   0.010000000

  Symmetry not applied to optimisation

  Cell parameters to be optimised directly

  RFO method to be used

  DFP hessian update to be used

  Lower half triangular hessian to be used

  Start of bulk optimisation :

  Cycle:      0 Energy:      -327.925794  Gnorm:      0.007951  CPU:    0.009
  ** Hessian has required structure
  Cycle:      1 Energy:      -327.931717  Gnorm:      0.000093  CPU:    0.014
  ** Hessian has required structure


  **** Optimisation achieved ****


  Final energy =    -327.93171653 eV
  Final Gnorm  =       0.00009258

  Components of energy : 

--------------------------------------------------------------------------------
  Interatomic potentials     =          53.24536599 eV    
  Monopole - monopole (real) =        -163.11782499 eV    
  Monopole - monopole (recip)=        -218.05925753 eV    
  Monopole - monopole (total)=        -381.17708252 eV    
--------------------------------------------------------------------------------
  Total lattice energy       =        -327.93171653 eV    
--------------------------------------------------------------------------------
  Total lattice energy       =          -31640.3978 kJ/(mole unit cells)
--------------------------------------------------------------------------------

  Final fractional coordinates of atoms :

--------------------------------------------------------------------------------
   No.  Atomic        x           y          z          Radius
        Label       (Frac)      (Frac)     (Frac)       (Angs) 
--------------------------------------------------------------------------------
     1  Mg    c     0.000000    0.000000    0.000000    0.000000
     2  Mg    c    -0.000000   -0.000000    0.500000    0.000000
     3  Mg    c    -0.000000    0.500000    0.250000    0.000000
     4  Mg    c    -0.000000    0.500000    0.750000    0.000000
     5  Mg    c     0.500000   -0.000000    0.250000    0.000000
     6  Mg    c     0.500000   -0.000000    0.750000    0.000000
     7  Mg    c     0.500000    0.500000   -0.000000    0.000000
     8  Mg    c     0.500000    0.500000    0.500000    0.000000
     9  O     c     0.500000    0.500000    0.250000    0.000000
    10  O     c     0.500000    0.500000    0.750000    0.000000
    11  O     c     0.500000   -0.000000   -0.000000    0.000000
    12  O     c     0.500000   -0.000000    0.500000    0.000000
    13  O     c    -0.000000    0.500000   -0.000000    0.000000
    14  O     c    -0.000000    0.500000    0.500000    0.000000
    15  O     c    -0.000000   -0.000000    0.250000    0.000000
    16  O     c    -0.000000   -0.000000    0.750000    0.000000
--------------------------------------------------------------------------------

  Final Cartesian lattice vectors (Angstroms) :

        4.225295    0.000000    0.000000
        0.000000    4.225295    0.000000
        0.000000    0.000000    8.449690


  Final cell parameters and derivatives :

--------------------------------------------------------------------------------
       a            4.225295 Angstrom     dE/a         0.003073 eV/Ang
       b            4.225295 Angstrom     dE/b         0.003073 eV/Ang
       c            8.449690 Angstrom     dE/c        -0.000928 eV/Ang
       alpha       90.000000 Degrees      dE/alpha     0.000000 eV/Deg
       beta        90.000000 Degrees      dE/beta      0.000000 eV/Deg
       gamma       90.000000 Degrees      dE/gamma     0.000000 eV/Deg
--------------------------------------------------------------------------------

  Primitive cell volume =           150.853333 Angs**3

  Density of cell =      3.549800 g/cm**3

  Non-primitive cell volume =           150.853333 Angs**3


  Final internal derivatives :

--------------------------------------------------------------------------------
   No.  Atomic          a             b             c           Radius
        Label          (eV)          (eV)          (eV)        (eV/Angs)
--------------------------------------------------------------------------------
      1 Mg    c       0.000000      0.000000      0.000000      0.000000
      2 Mg    c       0.000000     -0.000000     -0.000000      0.000000
      3 Mg    c       0.000000      0.000000      0.000000      0.000000
      4 Mg    c       0.000000      0.000000     -0.000000      0.000000
      5 Mg    c      -0.000000     -0.000000      0.000000      0.000000
      6 Mg    c      -0.000000     -0.000000     -0.000000      0.000000
      7 Mg    c      -0.000000      0.000000      0.000000      0.000000
      8 Mg    c      -0.000000      0.000000     -0.000000      0.000000
      9 O     c      -0.000000      0.000000     -0.000000      0.000000
     10 O     c      -0.000000      0.000000      0.000000      0.000000
     11 O     c      -0.000000      0.000000     -0.000000      0.000000
     12 O     c      -0.000000      0.000000      0.000000      0.000000
     13 O     c      -0.000000      0.000000      0.000000      0.000000
     14 O     c       0.000000      0.000000      0.000000      0.000000
     15 O     c      -0.000000     -0.000000     -0.000000      0.000000
     16 O     c      -0.000000     -0.000000      0.000000      0.000000
--------------------------------------------------------------------------------
  Maximum abs         0.000000      0.000000      0.000000      0.000000
--------------------------------------------------------------------------------


  Born effective charge tensors : 

-------------------------------------------------------------------------------
  Atom             x           y             z
-------------------------------------------------------------------------------
    1 Mg    x       2.0000      0.0000      0.0000
            y       0.0000      2.0000      0.0000
            z       0.0000      0.0000      2.0000
-------------------------------------------------------------------------------
    2 Mg    x       2.0000      0.0000      0.0000
            y       0.0000      2.0000      0.0000
            z       0.0000      0.0000      2.0000
-------------------------------------------------------------------------------
    3 Mg    x       2.0000      0.0000      0.0000
            y       0.0000      2.0000      0.0000
            z       0.0000      0.0000      2.0000
-------------------------------------------------------------------------------
    4 Mg    x       2.0000      0.0000      0.0000
            y       0.0000      2.0000      0.0000
            z       0.0000      0.0000      2.0000
-------------------------------------------------------------------------------
    5 Mg    x       2.0000      0.0000      0.0000
            y       0.0000      2.0000      0.0000
            z       0.0000      0.0000      2.0000
-------------------------------------------------------------------------------
    6 Mg    x       2.0000      0.0000      0.0000
            y       0.0000      2.0000      0.0000
            z       0.0000      0.0000      2.0000
-------------------------------------------------------------------------------
    7 Mg    x       2.0000      0.0000      0.0000
            y       0.0000      2.0000      0.0000
            z       0.0000      0.0000      2.0000
-------------------------------------------------------------------------------
    8 Mg    x       2.0000      0.0000      0.0000
            y       0.0000      2.0000      0.0000
            z       0.0000      0.0000      2.0000
-------------------------------------------------------------------------------
    9 O     x      -2.0000      0.0000      0.0000
            y       0.0000     -2.0000      0.0000
            z       0.0000      0.0000     -2.0000
-------------------------------------------------------------------------------
   10 O     x      -2.0000      0.0000      0.0000
            y       0.0000     -2.0000      0.0000
            z       0.0000      0.0000     -2.0000
-------------------------------------------------------------------------------
   11 O     x      -2.0000      0.0000      0.0000
            y       0.0000     -2.0000      0.0000
            z       0.0000      0.0000     -2.0000
-------------------------------------------------------------------------------
   12 O     x      -2.0000      0.0000      0.0000
            y       0.0000     -2.0000      0.0000
            z       0.0000      0.0000     -2.0000
-------------------------------------------------------------------------------
   13 O     x      -2.0000      0.0000      0.0000
            y       0.0000     -2.0000      0.0000
            z       0.0000      0.0000     -2.0000
-------------------------------------------------------------------------------
   14 O     x      -2.0000      0.0000      0.0000
            y       0.0000     -2.0000      0.0000
            z       0.0000      0.0000     -2.0000
-------------------------------------------------------------------------------
   15 O     x      -2.0000      0.0000      0.0000
            y       0.0000     -2.0000      0.0000
            z       0.0000      0.0000     -2.0000
-------------------------------------------------------------------------------
   16 O     x      -2.0000      0.0000      0.0000
            y       0.0000     -2.0000      0.0000
            z       0.0000      0.0000     -2.0000
-------------------------------------------------------------------------------




  Elastic Constant Matrix: (Units=GPa)

-------------------------------------------------------------------------------
  Indices      1         2         3         4         5         6    
-------------------------------------------------------------------------------
       1    370.5879  163.0174  163.0732    0.0000   -0.0000    0.0000
       2    163.0174  370.5879  163.0732   -0.0000    0.0000    0.0000
       3    163.0732  163.0732  370.8974   -0.0000   -0.0000   -0.0000
       4      0.0000   -0.0000   -0.0000  163.0759    0.0000    0.0000
       5     -0.0000    0.0000   -0.0000    0.0000  163.0759    0.0000
       6      0.0000    0.0000   -0.0000    0.0000    0.0000  163.0312
-------------------------------------------------------------------------------

  Elastic Constant Tensor Eigenvalues: (Units=GPa)

-------------------------------------------------------------------------------
     1 =   163.0312     2 =   163.0759     3 =   163.0759
     4 =   207.5705     5 =   207.7024     6 =   696.8003
-------------------------------------------------------------------------------


  Elastic Compliance Matrix: (Units=1/GPa)

-------------------------------------------------------------------------------
  Indices      1         2         3         4         5         6    
-------------------------------------------------------------------------------
       1    0.003690 -0.001127 -0.001127 -0.000000  0.000000 -0.000000
       2   -0.001127  0.003690 -0.001127  0.000000 -0.000000 -0.000000
       3   -0.001127 -0.001127  0.003687  0.000000 -0.000000  0.000000
       4   -0.000000  0.000000  0.000000  0.006132 -0.000000 -0.000000
       5    0.000000 -0.000000 -0.000000 -0.000000  0.006132 -0.000000
       6   -0.000000 -0.000000  0.000000 -0.000000 -0.000000  0.006134
-------------------------------------------------------------------------------

  Mechanical properties :

-------------------------------------------------------------------------------
  Convention :                    Reuss         Voigt         Hill
-------------------------------------------------------------------------------
  Bulk  Modulus (GPa)     =     232.26669     232.26674     232.26671
  Shear Modulus (GPa)     =     132.75817     139.36389     136.06103
-------------------------------------------------------------------------------
  Velocity S-wave (km/s)  =       6.11545       6.26575       6.19106
  Velocity P-wave (km/s)  =      10.73760      10.85252      10.79521
-------------------------------------------------------------------------------
  Compressibility (1/GPa) =    0.00430540
-------------------------------------------------------------------------------
  Stress axis :                     x             y             z
-------------------------------------------------------------------------------
  Youngs Moduli (GPa)     =     270.98885     270.98885     271.22500
-------------------------------------------------------------------------------
  Poissons Ratio (x)      =                     0.30553       0.30561
  Poissons Ratio (y)      =       0.30553                     0.30561
  Poissons Ratio (z)      =       0.30534       0.30534
-------------------------------------------------------------------------------


  Piezoelectric Strain Matrix: (Units=C/m**2)

-------------------------------------------------------------------------------
  Indices      1         2         3         4         5         6    
-------------------------------------------------------------------------------
       x    -0.00000  -0.00000  -0.00000   0.00000  -0.00000   0.00000
       y     0.00000   0.00000   0.00000  -0.00000   0.00000  -0.00000
       z    -0.00000  -0.00000   0.00000   0.00000  -0.00000   0.00000
-------------------------------------------------------------------------------


  Piezoelectric Stress Matrix: (Units=10**-11 C/N)

-------------------------------------------------------------------------------
  Indices      1         2         3         4         5         6    
-------------------------------------------------------------------------------
       x    -0.00000  -0.00000   0.00000   0.00000  -0.00000   0.00000
       y     0.00000   0.00000  -0.00000  -0.00000   0.00000  -0.00000
       z    -0.00000  -0.00000   0.00000   0.00000  -0.00000   0.00000
-------------------------------------------------------------------------------


  Static dielectric constant tensor : 

-------------------------------------------------------------------------------
              x         y         z
-------------------------------------------------------------------------------
       x     7.79463  -0.00000  -0.00000
       y    -0.00000   7.79463  -0.00000
       z    -0.00000  -0.00000   7.78230
--------------------------------------------------------------------------------

  Static refractive indices : 

-------------------------------------------------------------------------------
    1 =    2.78968      2 =    2.79189      3 =    2.79189
-------------------------------------------------------------------------------


  Phonon Calculation : 

  Number of k points for this configuration =        1

--------------------------------------------------------------------------------
  K point      1 =   0.000000  0.000000  0.000000  Weight =    1.000
--------------------------------------------------------------------------------

  Frequencies (cm-1) [NB: Negative implies an imaginary mode]:

   -0.00    0.00    0.00  243.53  243.53  243.53  243.53  344.57  344.57
  344.65  344.65  344.65  344.65  355.79  355.79  390.64  390.64  399.01
  399.01  399.37  426.02  426.02  426.02  426.02  453.23  453.23  453.23
  453.23  457.18  457.18  457.24  457.24  457.51  457.51  475.44  475.44
  488.81  488.81  489.06  609.73  609.73  609.73  609.73  798.94  799.01
  799.01  968.18  968.18


--------------------------------------------------------------------------------
  Phonon properties (per mole of unit cells): Temperature =      0.000 K
--------------------------------------------------------------------------------
  Zero point energy            =        1.313169 eV
--------------------------------------------------------------------------------

  Time to end of optimisation =       0.0288 seconds


################################################################################
#  Output for cell point     1                                                 #
################################################################################


  Components of energy : 

--------------------------------------------------------------------------------
  Interatomic potentials     =          53.24550493 eV    
  Monopole - monopole (real) =        -163.10092559 eV    
  Monopole - monopole (recip)=        -218.06460293 eV    
  Monopole - monopole (total)=        -381.16552852 eV    
--------------------------------------------------------------------------------
  Total lattice energy       =        -327.92002359 eV    
--------------------------------------------------------------------------------
  Total lattice energy       =          -31639.2696 kJ/(mole unit cells)
--------------------------------------------------------------------------------


  Number of variables =       48

  Maximum number of calculations  =          1000
  Maximum Hessian update interval =            10
  Maximum step size               =  10.000000000
  Maximum parameter tolerance     =   0.000010000
  Maximum function  tolerance     =   0.000010000
  Maximum gradient  tolerance     =   0.001000000
  Maximum gradient  component     =   0.010000000

  Symmetry not applied to optimisation

  Cell parameters to be optimised directly

  RFO method to be used

  DFP hessian update to be used

  Lower half triangular hessian to be used

  Start of bulk optimisation :

  Cycle:      0 Energy:      -327.920024  Gnorm:      0.000117  CPU:    0.032


  **** Optimisation achieved ****


  Final energy =    -327.92002359 eV
  Final Gnorm  =       0.00011703

  Components of energy : 

--------------------------------------------------------------------------------
  Interatomic potentials     =          53.24550493 eV    
  Monopole - monopole (real) =        -163.10092559 eV    
  Monopole - monopole (recip)=        -218.06460293 eV    
  Monopole - monopole (total)=        -381.16552852 eV    
--------------------------------------------------------------------------------
  Total lattice energy       =        -327.92002359 eV    
--------------------------------------------------------------------------------
  Total lattice energy       =          -31639.2696 kJ/(mole unit cells)
--------------------------------------------------------------------------------

  Final fractional coordinates of atoms :

--------------------------------------------------------------------------------
   No.  Atomic        x           y          z          Radius
        Label       (Frac)      (Frac)     (Frac)       (Angs) 
--------------------------------------------------------------------------------
     1  Mg    c     0.000000    0.000000    0.000000    0.000000
     2  Mg    c    -0.000000   -0.000000    0.500000    0.000000
     3  Mg    c    -0.000000    0.500000    0.250000    0.000000
     4  Mg    c    -0.000000    0.500000    0.750000    0.000000
     5  Mg    c     0.500000   -0.000000    0.250000    0.000000
     6  Mg    c     0.500000   -0.000000    0.750000    0.000000
     7  Mg    c     0.500000    0.500000   -0.000000    0.000000
     8  Mg    c     0.500000    0.500000    0.500000    0.000000
     9  O     c     0.500000    0.500000    0.250000    0.000000
    10  O     c     0.500000    0.500000    0.750000    0.000000
    11  O     c     0.500000   -0.000000   -0.000000    0.000000
    12  O     c     0.500000   -0.000000    0.500000    0.000000
    13  O     c    -0.000000    0.500000   -0.000000    0.000000
    14  O     c    -0.000000    0.500000    0.500000    0.000000
    15  O     c    -0.000000   -0.000000    0.250000    0.000000
    16  O     c    -0.000000   -0.000000    0.750000    0.000000
--------------------------------------------------------------------------------

  Final Cartesian lattice vectors (Angstroms) :

        4.225295    0.000000    0.000000
        0.000000    4.225295    0.000000
       -0.073737   -0.073737    8.449047


  Final cell parameters and derivatives :

--------------------------------------------------------------------------------
       a            4.225295 Angstrom     dE/a         0.003355 eV/Ang
       b            4.225295 Angstrom     dE/b         0.003355 eV/Ang
       c            8.449690 Angstrom     dE/c        -0.003008 eV/Ang
       alpha       90.500000 Degrees      dE/alpha     0.000000 eV/Deg
       beta        90.500000 Degrees      dE/beta      0.000000 eV/Deg
       gamma       90.000000 Degrees      dE/gamma     0.000000 eV/Deg
--------------------------------------------------------------------------------

  Primitive cell volume =           150.841844 Angs**3

  Density of cell =      3.550070 g/cm**3

  Non-primitive cell volume =           150.841844 Angs**3


  Final internal derivatives :

--------------------------------------------------------------------------------
   No.  Atomic          a             b             c           Radius
        Label          (eV)          (eV)          (eV)        (eV/Angs)
--------------------------------------------------------------------------------
      1 Mg    c       0.000000      0.000000      0.000000      0.000000
      2 Mg    c       0.000000     -0.000000     -0.000000      0.000000
      3 Mg    c      -0.000000     -0.000000      0.000000      0.000000
      4 Mg    c      -0.000000     -0.000000      0.000000      0.000000
      5 Mg    c       0.000000     -0.000000      0.000000      0.000000
      6 Mg    c      -0.000000     -0.000000      0.000000      0.000000
      7 Mg    c       0.000000      0.000000     -0.000000      0.000000
      8 Mg    c       0.000000      0.000000     -0.000000      0.000000
      9 O     c       0.000000     -0.000000     -0.000000      0.000000
     10 O     c      -0.000000     -0.000000      0.000000      0.000000
     11 O     c       0.000000      0.000000     -0.000000      0.000000
     12 O     c       0.000000      0.000000     -0.000000      0.000000
     13 O     c      -0.000000      0.000000     -0.000000      0.000000
     14 O     c       0.000000      0.000000     -0.000000      0.000000
     15 O     c       0.000000     -0.000000     -0.000000      0.000000
     16 O     c      -0.000000     -0.000000      0.000000      0.000000
--------------------------------------------------------------------------------
  Maximum abs         0.000000      0.000000      0.000000      0.000000
--------------------------------------------------------------------------------


  Born effective charge tensors : 

-------------------------------------------------------------------------------
  Atom             x           y             z
-------------------------------------------------------------------------------
    1 Mg    x       2.0000      0.0000      0.0000
            y       0.0000      2.0000      0.0000
            z       0.0000      0.0000      2.0000
-------------------------------------------------------------------------------
    2 Mg    x       2.0000      0.0000      0.0000
            y       0.0000      2.0000      0.0000
            z       0.0000      0.0000      2.0000
-------------------------------------------------------------------------------
    3 Mg    x       2.0000      0.0000      0.0000
            y       0.0000      2.0000      0.0000
            z       0.0000      0.0000      2.0000
-------------------------------------------------------------------------------
    4 Mg    x       2.0000      0.0000      0.0000
            y       0.0000      2.0000      0.0000
            z       0.0000      0.0000      2.0000
-------------------------------------------------------------------------------
    5 Mg    x       2.0000      0.0000      0.0000
            y       0.0000      2.0000      0.0000
            z       0.0000      0.0000      2.0000
-------------------------------------------------------------------------------
    6 Mg    x       2.0000      0.0000      0.0000
            y       0.0000      2.0000      0.0000
            z       0.0000      0.0000      2.0000
-------------------------------------------------------------------------------
    7 Mg    x       2.0000      0.0000      0.0000
            y       0.0000      2.0000      0.0000
            z       0.0000      0.0000      2.0000
-------------------------------------------------------------------------------
    8 Mg    x       2.0000      0.0000      0.0000
            y       0.0000      2.0000      0.0000
            z       0.0000      0.0000      2.0000
-------------------------------------------------------------------------------
    9 O     x      -2.0000      0.0000      0.0000
            y       0.0000     -2.0000      0.0000
            z       0.0000      0.0000     -2.0000
-------------------------------------------------------------------------------
   10 O     x      -2.0000      0.0000      0.0000
            y       0.0000     -2.0000      0.0000
            z       0.0000      0.0000     -2.0000
-------------------------------------------------------------------------------
   11 O     x      -2.0000      0.0000      0.0000
            y       0.0000     -2.0000      0.0000
            z       0.0000      0.0000     -2.0000
-------------------------------------------------------------------------------
   12 O     x      -2.0000      0.0000      0.0000
            y       0.0000     -2.0000      0.0000
            z       0.0000      0.0000     -2.0000
-------------------------------------------------------------------------------
   13 O     x      -2.0000      0.0000      0.0000
            y       0.0000     -2.0000      0.0000
            z       0.0000      0.0000     -2.0000
-------------------------------------------------------------------------------
   14 O     x      -2.0000      0.0000      0.0000
            y       0.0000     -2.0000      0.0000
            z       0.0000      0.0000     -2.0000
-------------------------------------------------------------------------------
   15 O     x      -2.0000      0.0000      0.0000
            y       0.0000     -2.0000      0.0000
            z       0.0000      0.0000     -2.0000
-------------------------------------------------------------------------------
   16 O     x      -2.0000      0.0000      0.0000
            y       0.0000     -2.0000      0.0000
            z       0.0000      0.0000     -2.0000
-------------------------------------------------------------------------------




  Elastic Constant Matrix: (Units=GPa)

-------------------------------------------------------------------------------
  Indices      1         2         3         4         5         6    
-------------------------------------------------------------------------------
       1    370.6041  163.0979  163.0821   -3.8527   -0.7061    0.0618
       2    163.0979  370.6041  163.0821   -0.7061   -3.8527    0.0618
       3    163.0821  163.0821  370.8874    0.3248    0.3248   -0.1003
       4     -3.8527   -0.7061    0.3248  163.0699   -0.0773   -4.5641
       5     -0.7061   -3.8527    0.3248   -0.0773  163.0699   -4.5641
       6      0.0618    0.0618   -0.1003   -4.5641   -4.5641  163.1254
-------------------------------------------------------------------------------

  Elastic Constant Tensor Eigenvalues: (Units=GPa)

-------------------------------------------------------------------------------
     1 =   156.5106     2 =   162.9251     3 =   169.3765
     4 =   207.7283     5 =   207.9247     6 =   696.8957
-------------------------------------------------------------------------------


  Elastic Compliance Matrix: (Units=1/GPa)

-------------------------------------------------------------------------------
  Indices      1         2         3         4         5         6    
-------------------------------------------------------------------------------
       1    0.003692 -0.001129 -0.001127  0.000085 -0.000008  0.000000
       2   -0.001129  0.003692 -0.001127 -0.000008  0.000085  0.000000
       3   -0.001127 -0.001127  0.003688 -0.000039 -0.000039  0.000001
       4    0.000085 -0.000008 -0.000039  0.006139  0.000008  0.000172
       5   -0.000008  0.000085 -0.000039  0.000008  0.006139  0.000172
       6    0.000000  0.000000  0.000001  0.000172  0.000172  0.006140
-------------------------------------------------------------------------------

  Mechanical properties :

-------------------------------------------------------------------------------
  Convention :                    Reuss         Voigt         Hill
-------------------------------------------------------------------------------
  Bulk  Modulus (GPa)     =     232.26656     232.29109     232.27882
  Shear Modulus (GPa)     =     132.65960     139.37528     136.01744
-------------------------------------------------------------------------------
  Velocity S-wave (km/s)  =       6.11295       6.26577       6.18983
  Velocity P-wave (km/s)  =      10.73546      10.85262      10.79420
-------------------------------------------------------------------------------
  Compressibility (1/GPa) =    0.00430540
-------------------------------------------------------------------------------
  Stress axis :                     x             y             z
-------------------------------------------------------------------------------
  Youngs Moduli (GPa)     =     270.86620     270.86620     271.18595
-------------------------------------------------------------------------------
  Poissons Ratio (x)      =                     0.30572       0.30566
  Poissons Ratio (y)      =       0.30572                     0.30566
  Poissons Ratio (z)      =       0.30530       0.30530
-------------------------------------------------------------------------------


  Piezoelectric Strain Matrix: (Units=C/m**2)

-------------------------------------------------------------------------------
  Indices      1         2         3         4         5         6    
-------------------------------------------------------------------------------
       x    -0.00000   0.00000   0.00000  -0.00000  -0.00000  -0.00000
       y    -0.00000   0.00000  -0.00000   0.00000  -0.00000   0.00000
       z    -0.00000   0.00000  -0.00000  -0.00000   0.00000  -0.00000
-------------------------------------------------------------------------------


  Piezoelectric Stress Matrix: (Units=10**-11 C/N)

-------------------------------------------------------------------------------
  Indices      1         2         3         4         5         6    
-------------------------------------------------------------------------------
       x    -0.00000   0.00000   0.00000  -0.00000  -0.00000  -0.00000
       y    -0.00000   0.00000  -0.00000   0.00000  -0.00000   0.00000
       z    -0.00000   0.00000  -0.00000  -0.00000   0.00000  -0.00000
-------------------------------------------------------------------------------


  Static dielectric constant tensor : 

-------------------------------------------------------------------------------
              x         y         z
-------------------------------------------------------------------------------
       x     7.79602   0.00119   0.03672
       y     0.00119   7.79602   0.03672
       z     0.03672   0.03672   7.78454
--------------------------------------------------------------------------------

  Static refractive indices : 

-------------------------------------------------------------------------------
    1 =    2.78183      2 =    2.79192      3 =    2.80057
-------------------------------------------------------------------------------


  Phonon Calculation : 

  Number of k points for this configuration =        1

--------------------------------------------------------------------------------
  K point      1 =   0.000000  0.000000  0.000000  Weight =    1.000
--------------------------------------------------------------------------------

  Frequencies (cm-1) [NB: Negative implies an imaginary mode]:

   -0.00    0.00    0.00  243.38  243.38  243.59  243.59  340.75  340.75
  344.39  344.73  348.34  348.34  355.86  355.86  390.65  390.65  397.60
  399.02  400.68  425.94  425.94  426.06  426.06  453.21  453.21  453.21
  453.21  455.28  455.28  457.06  457.31  459.36  459.36  475.50  475.50
  488.87  488.87  489.22  609.69  609.69  609.75  609.75  798.98  799.04
  799.04  968.20  968.20


--------------------------------------------------------------------------------
  Phonon properties (per mole of unit cells): Temperature =      0.000 K
--------------------------------------------------------------------------------
  Zero point energy            =        1.313144 eV
--------------------------------------------------------------------------------

  Time to end of optimisation =       0.0396 seconds


################################################################################
#  Output for cell point     2                                                 #
################################################################################


  Components of energy : 

--------------------------------------------------------------------------------
  Interatomic potentials     =          53.24592507 eV    
  Monopole - monopole (real) =        -163.05022578 eV    
  Monopole - monopole (recip)=        -218.08064209 eV    
  Monopole - monopole (total)=        -381.13086787 eV    
--------------------------------------------------------------------------------
  Total lattice energy       =        -327.88494280 eV    
--------------------------------------------------------------------------------
  Total lattice energy       =          -31635.8848 kJ/(mole unit cells)
--------------------------------------------------------------------------------


  Number of variables =       48

  Maximum number of calculations  =          1000
  Maximum Hessian update interval =            10
  Maximum step size               =  10.000000000
  Maximum parameter tolerance     =   0.000010000
  Maximum function  tolerance     =   0.000010000
  Maximum gradient  tolerance     =   0.001000000
  Maximum gradient  component     =   0.010000000

  Symmetry not applied to optimisation

  Cell parameters to be optimised directly

  RFO method to be used

  DFP hessian update to be used

  Lower half triangular hessian to be used

  Start of bulk optimisation :

  Cycle:      0 Energy:      -327.884943  Gnorm:      0.000229  CPU:    0.043


  **** Optimisation achieved ****


  Final energy =    -327.88494280 eV
  Final Gnorm  =       0.00022910

  Components of energy : 

--------------------------------------------------------------------------------
  Interatomic potentials     =          53.24592507 eV    
  Monopole - monopole (real) =        -163.05022578 eV    
  Monopole - monopole (recip)=        -218.08064209 eV    
  Monopole - monopole (total)=        -381.13086787 eV    
--------------------------------------------------------------------------------
  Total lattice energy       =        -327.88494280 eV    
--------------------------------------------------------------------------------
  Total lattice energy       =          -31635.8848 kJ/(mole unit cells)
--------------------------------------------------------------------------------

  Final fractional coordinates of atoms :

--------------------------------------------------------------------------------
   No.  Atomic        x           y          z          Radius
        Label       (Frac)      (Frac)     (Frac)       (Angs) 
--------------------------------------------------------------------------------
     1  Mg    c     0.000000    0.000000    0.000000    0.000000
     2  Mg    c    -0.000000   -0.000000    0.500000    0.000000
     3  Mg    c    -0.000000    0.500000    0.250000    0.000000
     4  Mg    c    -0.000000    0.500000    0.750000    0.000000
     5  Mg    c     0.500000   -0.000000    0.250000    0.000000
     6  Mg    c     0.500000   -0.000000    0.750000    0.000000
     7  Mg    c     0.500000    0.500000   -0.000000    0.000000
     8  Mg    c     0.500000    0.500000    0.500000    0.000000
     9  O     c     0.500000    0.500000    0.250000    0.000000
    10  O     c     0.500000    0.500000    0.750000    0.000000
    11  O     c     0.500000   -0.000000   -0.000000    0.000000
    12  O     c     0.500000   -0.000000    0.500000    0.000000
    13  O     c    -0.000000    0.500000   -0.000000    0.000000
    14  O     c    -0.000000    0.500000    0.500000    0.000000
    15  O     c    -0.000000   -0.000000    0.250000    0.000000
    16  O     c    -0.000000   -0.000000    0.750000    0.000000
--------------------------------------------------------------------------------

  Final Cartesian lattice vectors (Angstroms) :

        4.225295    0.000000    0.000000
        0.000000    4.225295    0.000000
       -0.147467   -0.147467    8.447116


  Final cell parameters and derivatives :

--------------------------------------------------------------------------------
       a            4.225295 Angstrom     dE/a         0.004202 eV/Ang
       b            4.225295 Angstrom     dE/b         0.004202 eV/Ang
       c            8.449690 Angstrom     dE/c        -0.009253 eV/Ang
       alpha       91.000000 Degrees      dE/alpha     0.000000 eV/Deg
       beta        91.000000 Degrees      dE/beta      0.000000 eV/Deg
       gamma       90.000000 Degrees      dE/gamma     0.000000 eV/Deg
--------------------------------------------------------------------------------

  Primitive cell volume =           150.807378 Angs**3

  Density of cell =      3.550882 g/cm**3

  Non-primitive cell volume =           150.807378 Angs**3


  Final internal derivatives :

--------------------------------------------------------------------------------
   No.  Atomic          a             b             c           Radius
        Label          (eV)          (eV)          (eV)        (eV/Angs)
--------------------------------------------------------------------------------
      1 Mg    c       0.000000      0.000000      0.000000      0.000000
      2 Mg    c      -0.000000      0.000000     -0.000000      0.000000
      3 Mg    c       0.000000      0.000000      0.000000      0.000000
      4 Mg    c       0.000000     -0.000000      0.000000      0.000000
      5 Mg    c      -0.000000     -0.000000      0.000000      0.000000
      6 Mg    c       0.000000     -0.000000      0.000000      0.000000
      7 Mg    c      -0.000000      0.000000     -0.000000      0.000000
      8 Mg    c       0.000000      0.000000     -0.000000      0.000000
      9 O     c       0.000000      0.000000     -0.000000      0.000000
     10 O     c       0.000000     -0.000000      0.000000      0.000000
     11 O     c       0.000000     -0.000000     -0.000000      0.000000
     12 O     c       0.000000      0.000000      0.000000      0.000000
     13 O     c      -0.000000     -0.000000     -0.000000      0.000000
     14 O     c      -0.000000      0.000000      0.000000      0.000000
     15 O     c      -0.000000      0.000000     -0.000000      0.000000
     16 O     c      -0.000000     -0.000000      0.000000      0.000000
--------------------------------------------------------------------------------
  Maximum abs         0.000000      0.000000      0.000000      0.000000
--------------------------------------------------------------------------------


  Born effective charge tensors : 

-------------------------------------------------------------------------------
  Atom             x           y             z
-------------------------------------------------------------------------------
    1 Mg    x       2.0000      0.0000      0.0000
            y       0.0000      2.0000      0.0000
            z       0.0000      0.0000      2.0000
-------------------------------------------------------------------------------
    2 Mg    x       2.0000      0.0000      0.0000
            y       0.0000      2.0000      0.0000
            z       0.0000      0.0000      2.0000
-------------------------------------------------------------------------------
    3 Mg    x       2.0000      0.0000      0.0000
            y       0.0000      2.0000      0.0000
            z       0.0000      0.0000      2.0000
-------------------------------------------------------------------------------
    4 Mg    x       2.0000      0.0000      0.0000
            y       0.0000      2.0000      0.0000
            z       0.0000      0.0000      2.0000
-------------------------------------------------------------------------------
    5 Mg    x       2.0000      0.0000      0.0000
            y       0.0000      2.0000      0.0000
            z       0.0000      0.0000      2.0000
-------------------------------------------------------------------------------
    6 Mg    x       2.0000      0.0000      0.0000
            y       0.0000      2.0000      0.0000
            z       0.0000      0.0000      2.0000
-------------------------------------------------------------------------------
    7 Mg    x       2.0000      0.0000      0.0000
            y       0.0000      2.0000      0.0000
            z       0.0000      0.0000      2.0000
-------------------------------------------------------------------------------
    8 Mg    x       2.0000      0.0000      0.0000
            y       0.0000      2.0000      0.0000
            z       0.0000      0.0000      2.0000
-------------------------------------------------------------------------------
    9 O     x      -2.0000      0.0000      0.0000
            y       0.0000     -2.0000      0.0000
            z       0.0000      0.0000     -2.0000
-------------------------------------------------------------------------------
   10 O     x      -2.0000      0.0000      0.0000
            y       0.0000     -2.0000      0.0000
            z       0.0000      0.0000     -2.0000
-------------------------------------------------------------------------------
   11 O     x      -2.0000      0.0000      0.0000
            y       0.0000     -2.0000      0.0000
            z       0.0000      0.0000     -2.0000
-------------------------------------------------------------------------------
   12 O     x      -2.0000      0.0000      0.0000
            y       0.0000     -2.0000      0.0000
            z       0.0000      0.0000     -2.0000
-------------------------------------------------------------------------------
   13 O     x      -2.0000      0.0000      0.0000
            y       0.0000     -2.0000      0.0000
            z       0.0000      0.0000     -2.0000
-------------------------------------------------------------------------------
   14 O     x      -2.0000      0.0000      0.0000
            y       0.0000     -2.0000      0.0000
            z       0.0000      0.0000     -2.0000
-------------------------------------------------------------------------------
   15 O     x      -2.0000      0.0000      0.0000
            y       0.0000     -2.0000      0.0000
            z       0.0000      0.0000     -2.0000
-------------------------------------------------------------------------------
   16 O     x      -2.0000      0.0000      0.0000
            y       0.0000     -2.0000      0.0000
            z       0.0000      0.0000     -2.0000
-------------------------------------------------------------------------------




  Elastic Constant Matrix: (Units=GPa)

-------------------------------------------------------------------------------
  Indices      1         2         3         4         5         6    
-------------------------------------------------------------------------------
       1    370.6528  163.3396  163.1089   -7.7042   -1.4124    0.2475
       2    163.3396  370.6528  163.1089   -1.4124   -7.7042    0.2475
       3    163.1089  163.1089  370.8577    0.6500    0.6500   -0.4013
       4     -7.7042   -1.4124    0.6500  163.0519   -0.3092   -9.1261
       5     -1.4124   -7.7042    0.6500   -0.3092  163.0519   -9.1261
       6      0.2475    0.2475   -0.4013   -9.1261   -9.1261  163.4081
-------------------------------------------------------------------------------

  Elastic Constant Tensor Eigenvalues: (Units=GPa)

-------------------------------------------------------------------------------
     1 =   149.8482     2 =   162.4782     3 =   175.3092
     4 =   208.1961     5 =   208.6614     6 =   697.1821
-------------------------------------------------------------------------------


  Elastic Compliance Matrix: (Units=1/GPa)

-------------------------------------------------------------------------------
  Indices      1         2         3         4         5         6    
-------------------------------------------------------------------------------
       1    0.003697 -0.001132 -0.001128  0.000169 -0.000017  0.000002
       2   -0.001132  0.003697 -0.001128 -0.000017  0.000169  0.000002
       3   -0.001128 -0.001128  0.003689 -0.000078 -0.000078  0.000004
       4    0.000169 -0.000017 -0.000078  0.006161  0.000032  0.000345
       5   -0.000017  0.000169 -0.000078  0.000032  0.006161  0.000345
       6    0.000002  0.000002  0.000004  0.000345  0.000345  0.006158
-------------------------------------------------------------------------------

  Mechanical properties :

-------------------------------------------------------------------------------
  Convention :                    Reuss         Voigt         Hill
-------------------------------------------------------------------------------
  Bulk  Modulus (GPa)     =     232.26573     232.36421     232.31497
  Shear Modulus (GPa)     =     132.36319     139.40946     135.88632
-------------------------------------------------------------------------------
  Velocity S-wave (km/s)  =       6.10542       6.26582       6.18614
  Velocity P-wave (km/s)  =      10.72904      10.85292      10.79116
-------------------------------------------------------------------------------
  Compressibility (1/GPa) =    0.00430541
-------------------------------------------------------------------------------
  Stress axis :                     x             y             z
-------------------------------------------------------------------------------
  Youngs Moduli (GPa)     =     270.49824     270.49824     271.06866
-------------------------------------------------------------------------------
  Poissons Ratio (x)      =                     0.30631       0.30581
  Poissons Ratio (y)      =       0.30631                     0.30581
  Poissons Ratio (z)      =       0.30517       0.30517
-------------------------------------------------------------------------------


  Piezoelectric Strain Matrix: (Units=C/m**2)

-------------------------------------------------------------------------------
  Indices      1         2         3         4         5         6    
-------------------------------------------------------------------------------
       x    -0.00000  -0.00000  -0.00000   0.00000  -0.00000   0.00000
       y     0.00000  -0.00000  -0.00000  -0.00000   0.00000  -0.00000
       z    -0.00000  -0.00000   0.00000  -0.00000  -0.00000   0.00000
-------------------------------------------------------------------------------


  Piezoelectric Stress Matrix: (Units=10**-11 C/N)

-------------------------------------------------------------------------------
  Indices      1         2         3         4         5         6    
-------------------------------------------------------------------------------
       x    -0.00000   0.00000   0.00000   0.00000  -0.00000   0.00000
       y     0.00000  -0.00000  -0.00000  -0.00000   0.00000  -0.00000
       z    -0.00000  -0.00000   0.00000  -0.00000  -0.00000   0.00000
-------------------------------------------------------------------------------


  Static dielectric constant tensor : 

-------------------------------------------------------------------------------
              x         y         z
-------------------------------------------------------------------------------
       x     7.80022   0.00475   0.07364
       y     0.00475   7.80022   0.07364
       z     0.07364   0.07364   7.79129
--------------------------------------------------------------------------------

  Static refractive indices : 

-------------------------------------------------------------------------------
    1 =    2.77376      2 =    2.79204      3 =    2.81114
-------------------------------------------------------------------------------


  Phonon Calculation : 

  Number of k points for this configuration =        1

--------------------------------------------------------------------------------
  K point      1 =   0.000000  0.000000  0.000000  Weight =    1.000
--------------------------------------------------------------------------------

  Frequencies (cm-1) [NB: Negative implies an imaginary mode]:

   -0.00    0.00    0.00  242.94  242.94  243.76  243.76  336.76  336.76
  343.61  344.97  351.92  351.92  356.06  356.06  390.69  390.69  395.94
  399.04  402.06  425.69  425.69  426.17  426.17  453.13  453.13  453.14
  453.14  453.19  453.19  456.50  457.52  461.30  461.30  475.68  475.68
  489.08  489.08  489.71  609.58  609.58  609.84  609.84  799.12  799.12
  799.12  968.26  968.26


--------------------------------------------------------------------------------
  Phonon properties (per mole of unit cells): Temperature =      0.000 K
--------------------------------------------------------------------------------
  Zero point energy            =        1.313068 eV
--------------------------------------------------------------------------------

  Time to end of optimisation =       0.0506 seconds


################################################################################
#  Output for cell point     3                                                 #
################################################################################


  Components of energy : 

--------------------------------------------------------------------------------
  Interatomic potentials     =          53.24906949 eV    
  Monopole - monopole (real) =        -162.96572070 eV    
  Monopole - monopole (recip)=        -218.10738392 eV    
  Monopole - monopole (total)=        -381.07310462 eV    
--------------------------------------------------------------------------------
  Total lattice energy       =        -327.82403513 eV    
--------------------------------------------------------------------------------
  Total lattice energy       =          -31630.0081 kJ/(mole unit cells)
--------------------------------------------------------------------------------


  Number of variables =       48

  Maximum number of calculations  =          1000
  Maximum Hessian update interval =            10
  Maximum step size               =  10.000000000
  Maximum parameter tolerance     =   0.000010000
  Maximum function  tolerance     =   0.000010000
  Maximum gradient  tolerance     =   0.001000000
  Maximum gradient  component     =   0.010000000

  Symmetry not applied to optimisation

  Cell parameters to be optimised directly

  RFO method to be used

  DFP hessian update to be used

  Lower half triangular hessian to be used

  Start of bulk optimisation :

  Cycle:      0 Energy:      -327.824035  Gnorm:      0.000449  CPU:    0.054
  ** Hessian has required structure
  Cycle:      1 Energy:      -327.824103  Gnorm:      0.000002  CPU:    0.058
  ** Hessian has required structure
  Cycle:      2 Energy:      -327.824103  Gnorm:      0.000002  CPU:    0.062
  ** Hessian has required structure


  **** Optimisation achieved ****


  Final energy =    -327.82410344 eV
  Final Gnorm  =       0.00000005

  Components of energy : 

--------------------------------------------------------------------------------
  Interatomic potentials     =          53.22330029 eV    
  Monopole - monopole (real) =        -162.95488212 eV    
  Monopole - monopole (recip)=        -218.09252162 eV    
  Monopole - monopole (total)=        -381.04740373 eV    
--------------------------------------------------------------------------------
  Total lattice energy       =        -327.82410344 eV    
--------------------------------------------------------------------------------
  Total lattice energy       =          -31630.0147 kJ/(mole unit cells)
--------------------------------------------------------------------------------

  Final fractional coordinates of atoms :

--------------------------------------------------------------------------------
   No.  Atomic        x           y          z          Radius
        Label       (Frac)      (Frac)     (Frac)       (Angs) 
--------------------------------------------------------------------------------
     1  Mg    c     0.000000    0.000000    0.000000    0.000000
     2  Mg    c    -0.000000   -0.000000    0.500000    0.000000
     3  Mg    c    -0.000000    0.500000    0.250000    0.000000
     4  Mg    c    -0.000000    0.500000    0.750000    0.000000
     5  Mg    c     0.500000   -0.000000    0.250000    0.000000
     6  Mg    c     0.500000   -0.000000    0.750000    0.000000
     7  Mg    c     0.500000    0.500000   -0.000000    0.000000
     8  Mg    c     0.500000    0.500000    0.500000    0.000000
     9  O     c     0.500000    0.500000    0.250000    0.000000
    10  O     c     0.500000    0.500000    0.750000    0.000000
    11  O     c     0.500000   -0.000000   -0.000000    0.000000
    12  O     c     0.500000   -0.000000    0.500000    0.000000
    13  O     c    -0.000000    0.500000   -0.000000    0.000000
    14  O     c    -0.000000    0.500000    0.500000    0.000000
    15  O     c    -0.000000   -0.000000    0.250000    0.000000
    16  O     c    -0.000000   -0.000000    0.750000    0.000000
--------------------------------------------------------------------------------

  Final Cartesian lattice vectors (Angstroms) :

        4.224185    0.000000    0.000000
        0.000000    4.224185    0.000000
       -0.221349   -0.221349    8.450065


  Final cell parameters and derivatives :

--------------------------------------------------------------------------------
       a            4.224185 Angstrom     dE/a         0.000002 eV/Ang
       b            4.224185 Angstrom     dE/b         0.000002 eV/Ang
       c            8.455861 Angstrom     dE/c         0.000001 eV/Ang
       alpha       91.500000 Degrees      dE/alpha     0.000000 eV/Deg
       beta        91.500000 Degrees      dE/beta      0.000000 eV/Deg
       gamma       90.000000 Degrees      dE/gamma     0.000000 eV/Deg
--------------------------------------------------------------------------------

  Primitive cell volume =           150.780752 Angs**3

  Density of cell =      3.551509 g/cm**3

  Non-primitive cell volume =           150.780752 Angs**3


  Final internal derivatives :

--------------------------------------------------------------------------------
   No.  Atomic          a             b             c           Radius
        Label          (eV)          (eV)          (eV)        (eV/Angs)
--------------------------------------------------------------------------------
      1 Mg    c       0.000000      0.000000      0.000000      0.000000
      2 Mg    c       0.000000     -0.000000     -0.000000      0.000000
      3 Mg    c       0.000000      0.000000      0.000000      0.000000
      4 Mg    c       0.000000      0.000000      0.000000      0.000000
      5 Mg    c       0.000000      0.000000      0.000000      0.000000
      6 Mg    c      -0.000000      0.000000      0.000000      0.000000
      7 Mg    c      -0.000000     -0.000000     -0.000000      0.000000
      8 Mg    c      -0.000000     -0.000000     -0.000000      0.000000
      9 O     c      -0.000000      0.000000     -0.000000      0.000000
     10 O     c      -0.000000      0.000000      0.000000      0.000000
     11 O     c      -0.000000      0.000000     -0.000000      0.000000
     12 O     c      -0.000000     -0.000000     -0.000000      0.000000
     13 O     c      -0.000000      0.000000     -0.000000      0.000000
     14 O     c      -0.000000     -0.000000     -0.000000      0.000000
     15 O     c       0.000000      0.000000     -0.000000      0.000000
     16 O     c       0.000000      0.000000      0.000000      0.000000
--------------------------------------------------------------------------------
  Maximum abs         0.000000      0.000000      0.000000      0.000000
--------------------------------------------------------------------------------


  Born effective charge tensors : 

-------------------------------------------------------------------------------
  Atom             x           y             z
-------------------------------------------------------------------------------
    1 Mg    x       2.0000      0.0000      0.0000
            y       0.0000      2.0000      0.0000
            z       0.0000      0.0000      2.0000
-------------------------------------------------------------------------------
    2 Mg    x       2.0000      0.0000      0.0000
            y       0.0000      2.0000      0.0000
            z       0.0000      0.0000      2.0000
-------------------------------------------------------------------------------
    3 Mg    x       2.0000      0.0000      0.0000
            y       0.0000      2.0000      0.0000
            z       0.0000      0.0000      2.0000
-------------------------------------------------------------------------------
    4 Mg    x       2.0000      0.0000      0.0000
            y       0.0000      2.0000      0.0000
            z       0.0000      0.0000      2.0000
-------------------------------------------------------------------------------
    5 Mg    x       2.0000      0.0000      0.0000
            y       0.0000      2.0000      0.0000
            z       0.0000      0.0000      2.0000
-------------------------------------------------------------------------------
    6 Mg    x       2.0000      0.0000      0.0000
            y       0.0000      2.0000      0.0000
            z       0.0000      0.0000      2.0000
-------------------------------------------------------------------------------
    7 Mg    x       2.0000      0.0000      0.0000
            y       0.0000      2.0000      0.0000
            z       0.0000      0.0000      2.0000
-------------------------------------------------------------------------------
    8 Mg    x       2.0000      0.0000      0.0000
            y       0.0000      2.0000      0.0000
            z       0.0000      0.0000      2.0000
-------------------------------------------------------------------------------
    9 O     x      -2.0000      0.0000      0.0000
            y       0.0000     -2.0000      0.0000
            z       0.0000      0.0000     -2.0000
-------------------------------------------------------------------------------
   10 O     x      -2.0000      0.0000      0.0000
            y       0.0000     -2.0000      0.0000
            z       0.0000      0.0000     -2.0000
-------------------------------------------------------------------------------
   11 O     x      -2.0000      0.0000      0.0000
            y       0.0000     -2.0000      0.0000
            z       0.0000      0.0000     -2.0000
-------------------------------------------------------------------------------
   12 O     x      -2.0000      0.0000      0.0000
            y       0.0000     -2.0000      0.0000
            z       0.0000      0.0000     -2.0000
-------------------------------------------------------------------------------
   13 O     x      -2.0000      0.0000      0.0000
            y       0.0000     -2.0000      0.0000
            z       0.0000      0.0000     -2.0000
-------------------------------------------------------------------------------
   14 O     x      -2.0000      0.0000      0.0000
            y       0.0000     -2.0000      0.0000
            z       0.0000      0.0000     -2.0000
-------------------------------------------------------------------------------
   15 O     x      -2.0000      0.0000      0.0000
            y       0.0000     -2.0000      0.0000
            z       0.0000      0.0000     -2.0000
-------------------------------------------------------------------------------
   16 O     x      -2.0000      0.0000      0.0000
            y       0.0000     -2.0000      0.0000
            z       0.0000      0.0000     -2.0000
-------------------------------------------------------------------------------




  Elastic Constant Matrix: (Units=GPa)

-------------------------------------------------------------------------------
  Indices      1         2         3         4         5         6    
-------------------------------------------------------------------------------
       1    371.3813  164.0466  162.9422  -11.5530   -2.1459    0.5618
       2    164.0466  371.3813  162.9422   -2.1459  -11.5530    0.5618
       3    162.9422  162.9422  368.5887    1.0390    1.0390   -0.8970
       4    -11.5530   -2.1459    1.0390  162.8865   -0.6912  -13.6808
       5     -2.1459  -11.5530    1.0390   -0.6912  162.8865  -13.6808
       6      0.5618    0.5618   -0.8970  -13.6808  -13.6808  164.1581
-------------------------------------------------------------------------------

  Elastic Constant Tensor Eigenvalues: (Units=GPa)

-------------------------------------------------------------------------------
     1 =   143.1715     2 =   161.6411     3 =   180.5992
     4 =   209.2713     5 =   209.3196     6 =   697.2796
-------------------------------------------------------------------------------


  Elastic Compliance Matrix: (Units=1/GPa)

-------------------------------------------------------------------------------
  Indices      1         2         3         4         5         6    
-------------------------------------------------------------------------------
       1    0.003700 -0.001136 -0.001134  0.000255 -0.000023  0.000004
       2   -0.001136  0.003700 -0.001134 -0.000023  0.000255  0.000004
       3   -0.001134 -0.001134  0.003716 -0.000119 -0.000119  0.000008
       4    0.000255 -0.000023 -0.000119  0.006202  0.000073  0.000521
       5   -0.000023  0.000255 -0.000119  0.000073  0.006202  0.000521
       6    0.000004  0.000004  0.000008  0.000521  0.000521  0.006179
-------------------------------------------------------------------------------

  Mechanical properties :

-------------------------------------------------------------------------------
  Convention :                    Reuss         Voigt         Hill
-------------------------------------------------------------------------------
  Bulk  Modulus (GPa)     =     232.13240     232.35704     232.24472
  Shear Modulus (GPa)     =     131.77902     139.41423     135.59663
-------------------------------------------------------------------------------
  Velocity S-wave (km/s)  =       6.09139       6.26538       6.17900
  Velocity P-wave (km/s)  =      10.71611      10.85195      10.78424
-------------------------------------------------------------------------------
  Compressibility (1/GPa) =    0.00430789
-------------------------------------------------------------------------------
  Stress axis :                     x             y             z
-------------------------------------------------------------------------------
  Youngs Moduli (GPa)     =     270.28708     270.28708     269.07911
-------------------------------------------------------------------------------
  Poissons Ratio (x)      =                     0.30704       0.30514
  Poissons Ratio (y)      =       0.30704                     0.30514
  Poissons Ratio (z)      =       0.30651       0.30651
-------------------------------------------------------------------------------


  Piezoelectric Strain Matrix: (Units=C/m**2)

-------------------------------------------------------------------------------
  Indices      1         2         3         4         5         6    
-------------------------------------------------------------------------------
       x    -0.00000   0.00000   0.00000  -0.00000  -0.00000  -0.00000
       y    -0.00000   0.00000  -0.00000  -0.00000  -0.00000   0.00000
       z    -0.00000  -0.00000   0.00000  -0.00000  -0.00000  -0.00000
-------------------------------------------------------------------------------


  Piezoelectric Stress Matrix: (Units=10**-11 C/N)

-------------------------------------------------------------------------------
  Indices      1         2         3         4         5         6    
-------------------------------------------------------------------------------
       x    -0.00000   0.00000   0.00000  -0.00000  -0.00000  -0.00000
       y    -0.00000   0.00000  -0.00000  -0.00000  -0.00000  -0.00000
       z    -0.00000  -0.00000   0.00000  -0.00000  -0.00000  -0.00000
-------------------------------------------------------------------------------


  Static dielectric constant tensor : 

-------------------------------------------------------------------------------
              x         y         z
-------------------------------------------------------------------------------
       x     7.77457   0.01062   0.10961
       y     0.01062   7.77457   0.10961
       z     0.10961   0.10961   7.88565
--------------------------------------------------------------------------------

  Static refractive indices : 

-------------------------------------------------------------------------------
    1 =    2.76992      2 =    2.78639      3 =    2.82814
-------------------------------------------------------------------------------


  Phonon Calculation : 

  Number of k points for this configuration =        1

--------------------------------------------------------------------------------
  K point      1 =   0.000000  0.000000  0.000000  Weight =    1.000
--------------------------------------------------------------------------------

  Frequencies (cm-1) [NB: Negative implies an imaginary mode]:

   -0.00    0.00    0.00  241.99  241.99  243.86  243.86  332.75  332.75
  342.06  345.13  355.04  355.04  355.45  355.45  389.55  389.55  393.25
  400.01  402.74  425.97  425.97  427.06  427.06  450.40  450.40  453.67
  453.67  453.68  453.68  455.99  458.28  462.82  462.82  474.52  474.52
  488.72  489.99  489.99  609.56  609.56  610.14  610.14  798.98  798.98
  799.76  968.01  968.01


--------------------------------------------------------------------------------
  Phonon properties (per mole of unit cells): Temperature =      0.000 K
--------------------------------------------------------------------------------
  Zero point energy            =        1.312555 eV
--------------------------------------------------------------------------------

  Time to end of optimisation =       0.0755 seconds


################################################################################
#  Output for cell point     4                                                 #
################################################################################


  Components of energy : 

--------------------------------------------------------------------------------
  Interatomic potentials     =          53.22549149 eV    
  Monopole - monopole (real) =        -162.83666340 eV    
  Monopole - monopole (recip)=        -218.12997937 eV    
  Monopole - monopole (total)=        -380.96664277 eV    
--------------------------------------------------------------------------------
  Total lattice energy       =        -327.74115128 eV    
--------------------------------------------------------------------------------
  Total lattice energy       =          -31622.0111 kJ/(mole unit cells)
--------------------------------------------------------------------------------


  Number of variables =       48

  Maximum number of calculations  =          1000
  Maximum Hessian update interval =            10
  Maximum step size               =  10.000000000
  Maximum parameter tolerance     =   0.000010000
  Maximum function  tolerance     =   0.000010000
  Maximum gradient  tolerance     =   0.001000000
  Maximum gradient  component     =   0.010000000

  Symmetry not applied to optimisation

  Cell parameters to be optimised directly

  RFO method to be used

  DFP hessian update to be used

  Lower half triangular hessian to be used

  Start of bulk optimisation :

  Cycle:      0 Energy:      -327.741151  Gnorm:      0.000309  CPU:    0.078
  ** Hessian has required structure
  Cycle:      1 Energy:      -327.741184  Gnorm:      0.000000  CPU:    0.083
  ** Hessian has required structure
  Cycle:      2 Energy:      -327.741184  Gnorm:      0.000000  CPU:    0.087
  ** Hessian has required structure


  **** Optimisation achieved ****


  Final energy =    -327.74118372 eV
  Final Gnorm  =       0.00000007

  Components of energy : 

--------------------------------------------------------------------------------
  Interatomic potentials     =          53.20359923 eV    
  Monopole - monopole (real) =        -162.82758302 eV    
  Monopole - monopole (recip)=        -218.11719994 eV    
  Monopole - monopole (total)=        -380.94478296 eV    
--------------------------------------------------------------------------------
  Total lattice energy       =        -327.74118372 eV    
--------------------------------------------------------------------------------
  Total lattice energy       =          -31622.0142 kJ/(mole unit cells)
--------------------------------------------------------------------------------

  Final fractional coordinates of atoms :

--------------------------------------------------------------------------------
   No.  Atomic        x           y          z          Radius
        Label       (Frac)      (Frac)     (Frac)       (Angs) 
--------------------------------------------------------------------------------
     1  Mg    c     0.000000    0.000000    0.000000    0.000000
     2  Mg    c    -0.000000   -0.000000    0.500000    0.000000
     3  Mg    c    -0.000000    0.500000    0.250000    0.000000
     4  Mg    c    -0.000000    0.500000    0.750000    0.000000
     5  Mg    c     0.500000   -0.000000    0.250000    0.000000
     6  Mg    c     0.500000   -0.000000    0.750000    0.000000
     7  Mg    c     0.500000    0.500000   -0.000000    0.000000
     8  Mg    c     0.500000    0.500000    0.500000    0.000000
     9  O     c     0.500000    0.500000    0.250000    0.000000
    10  O     c     0.500000    0.500000    0.750000    0.000000
    11  O     c     0.500000   -0.000000   -0.000000    0.000000
    12  O     c     0.500000   -0.000000    0.500000    0.000000
    13  O     c    -0.000000    0.500000   -0.000000    0.000000
    14  O     c    -0.000000    0.500000    0.500000    0.000000
    15  O     c    -0.000000   -0.000000    0.250000    0.000000
    16  O     c    -0.000000   -0.000000    0.750000    0.000000
--------------------------------------------------------------------------------

  Final Cartesian lattice vectors (Angstroms) :

        4.223485    0.000000    0.000000
        0.000000    4.223485    0.000000
       -0.295255   -0.295255    8.449843


  Final cell parameters and derivatives :

--------------------------------------------------------------------------------
       a            4.223485 Angstrom     dE/a        -0.000001 eV/Ang
       b            4.223485 Angstrom     dE/b        -0.000001 eV/Ang
       c            8.460153 Angstrom     dE/c        -0.000003 eV/Ang
[...]
  ** Hessian has required structure


  **** Optimisation achieved ****


  Final energy =    -325.34643232 eV
  Final Gnorm  =       0.00006832

  Components of energy : 

--------------------------------------------------------------------------------
  Interatomic potentials     =          52.86253294 eV    
  Monopole - monopole (real) =        -159.85467574 eV    
  Monopole - monopole (recip)=        -218.35428952 eV    
  Monopole - monopole (total)=        -378.20896527 eV    
--------------------------------------------------------------------------------
  Total lattice energy       =        -325.34643232 eV    
--------------------------------------------------------------------------------
  Total lattice energy       =          -31390.9573 kJ/(mole unit cells)
--------------------------------------------------------------------------------

  Final fractional coordinates of atoms :

--------------------------------------------------------------------------------
   No.  Atomic        x           y          z          Radius
        Label       (Frac)      (Frac)     (Frac)       (Angs) 
--------------------------------------------------------------------------------
     1  Mg    c     0.000000    0.000000    0.000000    0.000000
     2  Mg    c     0.250000    0.250000    0.500000    0.000000
     3  Mg    c     0.125000    0.625000    0.250000    0.000000
     4  Mg    c     0.375000    0.875000    0.750000    0.000000
     5  Mg    c     0.625000    0.125000    0.250000    0.000000
     6  Mg    c     0.875000    0.375000    0.750000    0.000000
     7  Mg    c     0.500000    0.500000   -0.000000    0.000000
     8  Mg    c     0.750000    0.750000    0.500000    0.000000
     9  O     c     0.625000    0.625000    0.250000    0.000000
    10  O     c     0.875000    0.875000    0.750000    0.000000
    11  O     c     0.500000   -0.000000   -0.000000    0.000000
    12  O     c     0.750000    0.250000    0.500000    0.000000
    13  O     c    -0.000000    0.500000   -0.000000    0.000000
    14  O     c     0.250000    0.750000    0.500000    0.000000
    15  O     c     0.125000    0.125000    0.250000    0.000000
    16  O     c     0.375000    0.375000    0.750000    0.000000
--------------------------------------------------------------------------------

  Final Cartesian lattice vectors (Angstroms) :

        4.320703    0.000000    0.000000
        0.000000    4.320703    0.000000
       -3.143166   -3.143166    8.043454


  Final cell parameters and derivatives :

--------------------------------------------------------------------------------
       a            4.320703 Angstrom     dE/a         0.001231 eV/Ang
       b            4.320703 Angstrom     dE/b         0.001231 eV/Ang
       c            9.190002 Angstrom     dE/c        -0.002779 eV/Ang
       alpha      110.000000 Degrees      dE/alpha     0.000000 eV/Deg
       beta       110.000000 Degrees      dE/beta      0.000000 eV/Deg
       gamma       90.000000 Degrees      dE/gamma     0.000000 eV/Deg
--------------------------------------------------------------------------------

  Primitive cell volume =           150.159019 Angs**3

  Density of cell =      3.566214 g/cm**3

  Non-primitive cell volume =           150.159019 Angs**3


  Final internal derivatives :

--------------------------------------------------------------------------------
   No.  Atomic          a             b             c           Radius
        Label          (eV)          (eV)          (eV)        (eV/Angs)
--------------------------------------------------------------------------------
      1 Mg    c       0.000000      0.000000      0.000000      0.000000
      2 Mg    c      -0.000000      0.000000      0.000000      0.000000
      3 Mg    c       0.000000     -0.000000     -0.000000      0.000000
      4 Mg    c      -0.000000     -0.000000      0.000000      0.000000
      5 Mg    c       0.000000      0.000000     -0.000000      0.000000
      6 Mg    c       0.000000      0.000000     -0.000000      0.000000
      7 Mg    c       0.000000      0.000000     -0.000000      0.000000
      8 Mg    c       0.000000     -0.000000      0.000000      0.000000
      9 O     c       0.000000     -0.000000     -0.000000      0.000000
     10 O     c       0.000000      0.000000     -0.000000      0.000000
     11 O     c      -0.000000      0.000000     -0.000000      0.000000
     12 O     c       0.000000      0.000000     -0.000000      0.000000
     13 O     c       0.000000     -0.000000     -0.000000      0.000000
     14 O     c      -0.000000      0.000000     -0.000000      0.000000
     15 O     c      -0.000000      0.000000     -0.000000      0.000000
     16 O     c      -0.000000     -0.000000     -0.000000      0.000000
--------------------------------------------------------------------------------
  Maximum abs         0.000000      0.000000      0.000000      0.000000
--------------------------------------------------------------------------------


  Born effective charge tensors : 

-------------------------------------------------------------------------------
  Atom             x           y             z
-------------------------------------------------------------------------------
    1 Mg    x       2.0000      0.0000      0.0000
            y       0.0000      2.0000      0.0000
            z       0.0000      0.0000      2.0000
-------------------------------------------------------------------------------
    2 Mg    x       2.0000      0.0000      0.0000
            y       0.0000      2.0000      0.0000
            z       0.0000      0.0000      2.0000
-------------------------------------------------------------------------------
    3 Mg    x       2.0000      0.0000      0.0000
            y       0.0000      2.0000      0.0000
            z       0.0000      0.0000      2.0000
-------------------------------------------------------------------------------
    4 Mg    x       2.0000      0.0000      0.0000
            y       0.0000      2.0000      0.0000
            z       0.0000      0.0000      2.0000
-------------------------------------------------------------------------------
    5 Mg    x       2.0000      0.0000      0.0000
            y       0.0000      2.0000      0.0000
            z       0.0000      0.0000      2.0000
-------------------------------------------------------------------------------
    6 Mg    x       2.0000      0.0000      0.0000
            y       0.0000      2.0000      0.0000
            z       0.0000      0.0000      2.0000
-------------------------------------------------------------------------------
    7 Mg    x       2.0000      0.0000      0.0000
            y       0.0000      2.0000      0.0000
            z       0.0000      0.0000      2.0000
-------------------------------------------------------------------------------
    8 Mg    x       2.0000      0.0000      0.0000
            y       0.0000      2.0000      0.0000
            z       0.0000      0.0000      2.0000
-------------------------------------------------------------------------------
    9 O     x      -2.0000      0.0000      0.0000
            y       0.0000     -2.0000      0.0000
            z       0.0000      0.0000     -2.0000
-------------------------------------------------------------------------------
   10 O     x      -2.0000      0.0000      0.0000
            y       0.0000     -2.0000      0.0000
            z       0.0000      0.0000     -2.0000
-------------------------------------------------------------------------------
   11 O     x      -2.0000      0.0000      0.0000
            y       0.0000     -2.0000      0.0000
            z       0.0000      0.0000     -2.0000
-------------------------------------------------------------------------------
   12 O     x      -2.0000      0.0000      0.0000
            y       0.0000     -2.0000      0.0000
            z       0.0000      0.0000     -2.0000
-------------------------------------------------------------------------------
   13 O     x      -2.0000      0.0000      0.0000
            y       0.0000     -2.0000      0.0000
            z       0.0000      0.0000     -2.0000
-------------------------------------------------------------------------------
   14 O     x      -2.0000      0.0000      0.0000
            y       0.0000     -2.0000      0.0000
            z       0.0000      0.0000     -2.0000
-------------------------------------------------------------------------------
   15 O     x      -2.0000      0.0000      0.0000
            y       0.0000     -2.0000      0.0000
            z       0.0000      0.0000     -2.0000
-------------------------------------------------------------------------------
   16 O     x      -2.0000      0.0000      0.0000
            y       0.0000     -2.0000      0.0000
            z       0.0000      0.0000     -2.0000
-------------------------------------------------------------------------------




  Elastic Constant Matrix: (Units=GPa)

-------------------------------------------------------------------------------
  Indices      1         2         3         4         5         6    
-------------------------------------------------------------------------------
       1    306.1330  156.0492  174.4282  -53.5194   -5.3513   10.6409
       2    156.0492  306.1330  174.4282   -5.3513  -53.5194   10.6409
       3    174.4282  174.4282  463.3281  -12.9337  -12.9337  -15.0909
       4    -53.5194   -5.3513  -12.9337  170.7132  -10.6002  -62.9986
       5     -5.3513  -53.5194  -12.9337  -10.6002  170.7132  -62.9986
       6     10.6409   10.6409  -15.0909  -62.9986  -62.9986  163.4633
-------------------------------------------------------------------------------

  Elastic Constant Tensor Eigenvalues: (Units=GPa)

-------------------------------------------------------------------------------
     1 =    70.0114     2 =   115.0627     3 =   193.5873
     4 =   216.3344     5 =   270.5324     6 =   714.9556
-------------------------------------------------------------------------------


  Elastic Compliance Matrix: (Units=1/GPa)

-------------------------------------------------------------------------------
  Indices      1         2         3         4         5         6    
-------------------------------------------------------------------------------
       1    0.005227 -0.002057 -0.001161  0.001492 -0.000443  0.000091
       2   -0.002057  0.005227 -0.001161 -0.000443  0.001492  0.000091
       3   -0.001161 -0.001161  0.003045 -0.000015 -0.000015  0.000420
       4    0.001492 -0.000443 -0.000015  0.007733  0.001703  0.003567
       5   -0.000443  0.001492 -0.000015  0.001703  0.007733  0.003567
       6    0.000091  0.000091  0.000420  0.003567  0.003567  0.008894
-------------------------------------------------------------------------------

  Mechanical properties :

-------------------------------------------------------------------------------
  Convention :                    Reuss         Voigt         Hill
-------------------------------------------------------------------------------
  Bulk  Modulus (GPa)     =     210.95646     231.71170     221.33408
  Shear Modulus (GPa)     =     103.74330     139.02384     121.38357
-------------------------------------------------------------------------------
  Velocity S-wave (km/s)  =       5.39357       6.24368       5.83413
  Velocity P-wave (km/s)  =       9.89655      10.81445      10.36566
-------------------------------------------------------------------------------
  Compressibility (1/GPa) =    0.00474031
-------------------------------------------------------------------------------
  Stress axis :                     x             y             z
-------------------------------------------------------------------------------
  Youngs Moduli (GPa)     =     191.32575     191.32575     328.38315
-------------------------------------------------------------------------------
  Poissons Ratio (x)      =                     0.39362       0.38123
  Poissons Ratio (y)      =       0.39362                     0.38123
  Poissons Ratio (z)      =       0.22211       0.22211
-------------------------------------------------------------------------------


  Piezoelectric Strain Matrix: (Units=C/m**2)

-------------------------------------------------------------------------------
  Indices      1         2         3         4         5         6    
-------------------------------------------------------------------------------
       x     0.00000  -0.00000  -0.00000  -0.00000  -0.00000  -0.00000
       y    -0.00000   0.00000  -0.00000  -0.00000  -0.00000  -0.00000
       z     0.00000   0.00000   0.00000  -0.00000  -0.00000   0.00000
-------------------------------------------------------------------------------


  Piezoelectric Stress Matrix: (Units=10**-11 C/N)

-------------------------------------------------------------------------------
  Indices      1         2         3         4         5         6    
-------------------------------------------------------------------------------
       x     0.00000  -0.00000  -0.00000  -0.00000  -0.00000  -0.00000
       y    -0.00000   0.00000  -0.00000  -0.00000  -0.00000  -0.00000
       z    -0.00000  -0.00000   0.00000  -0.00000  -0.00000  -0.00000
-------------------------------------------------------------------------------


  Static dielectric constant tensor : 

-------------------------------------------------------------------------------
              x         y         z
-------------------------------------------------------------------------------
       x    11.99540   0.58640   1.11718
       y     0.58640  11.99540   1.11718
       z     1.11718   1.11718   5.40378
--------------------------------------------------------------------------------

  Static refractive indices : 

-------------------------------------------------------------------------------
    1 =    2.25198      2 =    3.37772      3 =    3.59363
-------------------------------------------------------------------------------


  Phonon Calculation : 

  Number of k points for this configuration =        1

--------------------------------------------------------------------------------
  K point      1 =   0.000000  0.000000  0.000000  Weight =    1.000
--------------------------------------------------------------------------------

  Frequencies (cm-1) [NB: Negative implies an imaginary mode]:

   -0.00   -0.00    0.00  234.36  234.36  263.81  263.81  302.02  314.68
  323.12  334.23  334.23  334.23  334.23  347.94  347.94  363.04  369.40
  369.40  369.40  369.40  374.46  374.46  384.11  416.99  416.99  416.99
  416.99  425.32  425.32  438.86  470.04  470.04  470.04  470.04  516.64
  559.40  559.40  559.40  559.40  581.32  752.59  752.59  752.59  752.59
  780.51  982.79  982.79


--------------------------------------------------------------------------------
  Phonon properties (per mole of unit cells): Temperature =      0.000 K
--------------------------------------------------------------------------------
  Zero point energy            =        1.293922 eV
--------------------------------------------------------------------------------

  Time to end of optimisation =       1.5535 seconds


  Final energies for configurations from scan_cell option:

--------------------------------------------------------------------------------
    Cell scan step number                           Energy (eV)      Opt OK?    
--------------------------------------------------------------------------------
             0                                     -327.93171653          T
             1                                     -327.92002359          T
             2                                     -327.88494280          T
             3                                     -327.82410344          T
             4                                     -327.74118372          T
             5                                     -327.63500423          T
             6                                     -327.50562077          T
             7                                     -327.35435181          T
             8                                     -327.18004345          T
             9                                     -326.98282510          T
            10                                     -326.76285854          T
            11                                     -326.52034525          T
            12                                     -326.25553592          T
            13                                     -325.96874231          T
            14                                     -325.66035317          T
            15                                     -325.33085525          T
            16                                     -324.98086010          T
            17                                     -324.61053912          T
            18                                     -324.22210310          T
            19                                     -323.81619758          T
            20                                     -323.39447413          T
            21                                     -322.95911392          T
            22                                     -322.51305461          T
            23                                     -322.06035031          T
            24                                     -327.78908549          T
            25                                     -327.86211261          T
            26                                     -327.91009550          T
            27                                     -327.93075056          T
            28                                     -327.92426789          T
            29                                     -327.88962997          T
            30                                     -327.82449854          F
            31                                     -327.72820593          T
            32                                     -327.60184719          T
            33                                     -327.44447335          T
            34                                     -327.25254395          T
            35                                     -327.02745938          T
            36                                     -326.76687343          T
            37                                     -326.46965847          T
            38                                     -326.13465318          T
            39                                     -325.76065824          T
            40                                     -325.34643232          T
--------------------------------------------------------------------------------


  Peak dynamic memory used =       0.61 MB 


  Timing analysis for GULP :

--------------------------------------------------------------------------------
  Task / Subroutine                                          Time (Seconds)
--------------------------------------------------------------------------------
  Calculation of reciprocal space energy and derivatives          0.1535
  Calculation of real space energy and derivatives                1.3027
  Calculation of phonons                                          0.1289
  Calculation and manipulation of Hessian matrix                  0.0709
  Calculation of matrix inversion                                 0.0008
  Global summation overhead                                       0.0007
--------------------------------------------------------------------------------
  Total CPU time                                                  1.5537
--------------------------------------------------------------------------------


  Dump file written as example65.res


  Job Finished at 15:43.05  4th July       2018                               

