********************************************************************************
*                       GENERAL UTILITY LATTICE PROGRAM                        *
*                                 Julian Gale                                  *
*                       Curtin Institute for Computation                       *
*                           Department of Chemistry                            *
*                    Curtin University, Western Australia                      *
********************************************************************************
* Version = 5.1.0 * Last modified =   4th July 2018                            *
********************************************************************************
*  optimise     - perform optimisation run                                     *
*  conp         - constant pressure calculation                                *
*  property     - calculate properties for final geometry                      *
********************************************************************************

  Job Started  at 15:18.33  4th July       2018                               

  Number of CPUs =     1

  Host name      = M-A0010516-S                            


  Total number of configurations input =      2

********************************************************************************
*  Input for Configuration =   1 : chabazite                                   *
********************************************************************************

  Formula = Si12O24                                                     

  Number of irreducible atoms/shells =       9


  Total number atoms/shells =      60

  Dimensionality = 3               :  Bulk   


  Symmetry :

  Crystal family                   :  Hexagonal   
  Crystal class  (Groth - 1921)    :  Ditrigonal Scalenohedral             

  Space group (centrosymmetric)    :  R -3 M          

  Patterson group                  :  R -3 m   

  Cartesian lattice vectors (Angstroms) :

        6.901286    3.984460    5.025094
       -6.901286    3.984460    5.025094
        0.000000   -7.968919    5.025094

  Cell parameters (Angstroms/Degrees):

  a =       9.4210    alpha =  94.2000
  b =       9.4210    beta  =  94.2000
  c =       9.4210    gamma =  94.2000

  Initial cell volume =         829.077085 Angs**3

  Temperature of configuration =  0.000     K 

  Pressure of configuration =         0.000 GPa 

  Fractional coordinates of asymmetric unit :

--------------------------------------------------------------------------------
   No.  Atomic       x           y          z         Charge      Occupancy
        Label      (Frac)      (Frac)     (Frac)        (e)         (Frac)  
--------------------------------------------------------------------------------
      1 Si    c    0.102192 *  0.331083 *  0.876169 *   4.00000    1.000000    
      2 O1    c    0.261344 *  0.738656    0.000000     0.86902    1.000000    
      3 O2    c    0.141729 *  0.858271    0.500000     0.86902    1.000000    
      4 O3    c    0.246729 *  0.246729    0.890290 *   0.86902    1.000000    
      5 O4    c    0.018968 *  0.018968    0.314454 *   0.86902    1.000000    
      6 O1    s    0.254283 *  0.745717    0.000000    -2.86902    1.000000    
      7 O2    s    0.135829 *  0.864171    0.500000    -2.86902    1.000000    
      8 O3    s    0.240510 *  0.240510    0.887279 *  -2.86902    1.000000    
      9 O4    s    0.012617 *  0.012617    0.318045 *  -2.86902    1.000000    
--------------------------------------------------------------------------------


  Constraints : 

--------------------------------------------------------------------------------
  Constraint no.      Unconstrained     Constrained    Coefficient    Offset
                         Variable         Variable
--------------------------------------------------------------------------------
           1              Strain 1        Strain 2       1.00000      0.0000
           2                 4 x             4 y         2.00000     -1.0000
           3                 5 x             5 y         2.00000     -1.0000
           4                 8 x             8 y         2.00000     -1.0000
           5                 9 x             9 y         2.00000     -1.0000
--------------------------------------------------------------------------------


********************************************************************************
*  Input for Configuration =   2 : quartz                                      *
********************************************************************************

  Formula = Si3O6                                                       

  Number of irreducible atoms/shells =       3


  Total number atoms/shells =      15

  Dimensionality = 3               :  Bulk   


  Symmetry :

  Crystal family                   :  Hexagonal   
  Crystal class  (Groth - 1921)    :  Trigonal Trapezohedral               

  Space group (noncentrosymmetric) :  P 31 2 1        

  Patterson group                  :  P -3 m 1 

  Cartesian lattice vectors (Angstroms) :

        4.914730    0.000000    0.000000
       -2.457365    4.256281    0.000000
        0.000000    0.000000    5.406570

  Cell parameters (Angstroms/Degrees):

  a =       4.9147    alpha =  90.0000
  b =       4.9147    beta  =  90.0000
  c =       5.4066    gamma = 120.0000

  Initial cell volume =         113.097184 Angs**3

  Temperature of configuration =  0.000     K 

  Pressure of configuration =         0.000 GPa 

  Fractional coordinates of asymmetric unit :

--------------------------------------------------------------------------------
   No.  Atomic       x           y          z         Charge      Occupancy
        Label      (Frac)      (Frac)     (Frac)        (e)         (Frac)  
--------------------------------------------------------------------------------
      1 Si    c    0.468200 *  0.000000    0.333333     4.00000    1.000000    
      2 O     c    0.413100 *  0.266100 *  0.213100 *   0.86902    1.000000    
      3 O     s    0.431522 *  0.266445 *  0.204492 *  -2.86902    1.000000    
--------------------------------------------------------------------------------


  Constraints : 

--------------------------------------------------------------------------------
  Constraint no.      Unconstrained     Constrained    Coefficient    Offset
                         Variable         Variable
--------------------------------------------------------------------------------
           1              Strain 1        Strain 2       1.00000      0.0000
--------------------------------------------------------------------------------


********************************************************************************
*  General input information                                                   *
********************************************************************************

  Species output for all configurations : 

--------------------------------------------------------------------------------
  Species    Type    Atomic    Atomic    Charge       Radii (Angs)     Library
                     Number     Mass       (e)     Cova   Ionic  VDW   Symbol
--------------------------------------------------------------------------------
    Si       Core       14      28.09   4.000000   1.200  0.000  2.100          
    O        Core        8      16.00   0.869020   0.730  0.000  1.360          
    O        Shell       8       0.00  -2.869020   0.730  0.000  1.360          
--------------------------------------------------------------------------------


  Lattice summation method               =    Ewald          (3-D)
                                         =    Parry          (2-D)
                                         =    Saunders et al (1-D)
  Accuracy factor for lattice sums       =   12.000


  Time limit = Infinity

  Maximum range for interatomic potentials =    100000.000000 Angstroms

  General interatomic potentials :

--------------------------------------------------------------------------------
Atom  Types   Potential      Parameter       Value         Units   Cutoffs(Ang)
  1     2                                                            Min /  Max 
--------------------------------------------------------------------------------
Si   c O    s Buckingham    Buckingham A     1280.0000    eV        0.000 12.000
                            Buckingham rho  0.32052000    Ang       
                            Buckingham C     10.661580    eV*Ang^6  
--------------------------------------------------------------------------------
O    s O    s Buckingham    Buckingham A     22764.000    eV        0.000 12.000
                            Buckingham rho  0.14900000    Ang       
                            Buckingham C     27.880000    eV*Ang^6  
--------------------------------------------------------------------------------
O    c O    s Spring (c-s)  Spring k 2       74.920000    eV*Ang^-2 0.000  0.800
                            Spring k 4       0.0000000    eV*Ang^-4 
--------------------------------------------------------------------------------

  General Three-body potentials :

--------------------------------------------------------------------------------
  Atoms       Potential      Parameter       Value         Units   Cutoffs(Ang)
  1 / 2 / 3                                                          Min /  Max 
--------------------------------------------------------------------------------
Si    core    Harmonic      Three-body cnst  2.0972400    eV*rad^-2 0.000  2.200
O     shel                  Three-body angl  109.47000    degrees   0.000  2.200
O     shel                  Three-body k4    0.0000000    eV*rad^-4 0.000  3.800
                            Three-body k3    0.0000000    eV*rad^-3 
--------------------------------------------------------------------------------

********************************************************************************
*  Output for configuration   1 : chabazite                                    *
********************************************************************************


  Components of energy : 

--------------------------------------------------------------------------------
  Interatomic potentials     =         382.05713877 eV    
  Three-body potentials      =           0.37924670 eV    
  Monopole - monopole (real) =       -1046.64550280 eV    
  Monopole - monopole (recip)=        -878.42670077 eV    
  Monopole - monopole (total)=       -1925.07220357 eV    
--------------------------------------------------------------------------------
  Total lattice energy : 
    Primitive unit cell      =       -1542.63581809 eV    
    Non-primitive unit cell  =       -4627.90745426 eV    
--------------------------------------------------------------------------------
  Total lattice energy (in kJmol-1): 
    Primitive unit cell      =         -148840.7751 kJ/(mole unit cells)
    Non-primitive unit cell  =         -446522.3253 kJ/(mole unit cells)
--------------------------------------------------------------------------------


  Number of variables =       17

  Maximum number of calculations  =          1000
  Maximum Hessian update interval =            10
  Maximum step size               =  10.000000000
  Maximum parameter tolerance     =   0.000010000
  Maximum function  tolerance     =   0.000010000
  Maximum gradient  tolerance     =   0.001000000
  Maximum gradient  component     =   0.010000000

  Symmetry constrained optimisation

  Symmetry used for second derivatives

  Cell parameters to be optimised using strains

  Newton-Raphson optimiser to be used

  BFGS hessian update to be used

  Lower half triangular hessian to be used

  Start of bulk optimisation :

  Cycle:      0 Energy:     -1542.635818  Gnorm:      4.026051  CPU:    0.018
  ** Hessian calculated **
  Cycle:      1 Energy:     -1543.790174  Gnorm:      0.865351  CPU:    0.031
  Cycle:      2 Energy:     -1543.801013  Gnorm:      0.711171  CPU:    0.045
  Cycle:      3 Energy:     -1543.805071  Gnorm:      0.214693  CPU:    0.058
  Cycle:      4 Energy:     -1543.805255  Gnorm:      0.112433  CPU:    0.070
  Cycle:      5 Energy:     -1543.805281  Gnorm:      0.023620  CPU:    0.082
  Cycle:      6 Energy:     -1543.805284  Gnorm:      0.005444  CPU:    0.092


  **** Optimisation achieved ****


  Final energy =   -1543.80528441 eV
  Final Gnorm  =       0.00021168

  Components of energy : 

--------------------------------------------------------------------------------
  Interatomic potentials     =         420.75633185 eV    
  Three-body potentials      =           0.18647215 eV    
  Monopole - monopole (real) =       -1063.17986318 eV    
  Monopole - monopole (recip)=        -901.56822523 eV    
  Monopole - monopole (total)=       -1964.74808841 eV    
--------------------------------------------------------------------------------
  Total lattice energy : 
    Primitive unit cell      =       -1543.80528441 eV    
    Non-primitive unit cell  =       -4631.41585324 eV    
--------------------------------------------------------------------------------
  Total lattice energy (in kJmol-1): 
    Primitive unit cell      =         -148953.6107 kJ/(mole unit cells)
    Non-primitive unit cell  =         -446860.8322 kJ/(mole unit cells)
--------------------------------------------------------------------------------

  Final asymmetric unit coordinates :

--------------------------------------------------------------------------------
   No.  Atomic        x           y           z         Radius
        Label       (Frac)      (Frac)      (Frac)       (Angs) 
--------------------------------------------------------------------------------
     1  Si    c     0.106412    0.333416    0.878494    0.000000
     2  O1    c     0.259468    0.740532    0.000000    0.000000
     3  O2    c     0.150466    0.849534    0.500000    0.000000
     4  O3    c     0.254372    0.254372    0.897416    0.000000
     5  O4    c     0.027138    0.027138    0.323371    0.000000
     6  O1    s     0.252238    0.747762    0.000000    0.000000
     7  O2    s     0.142167    0.857833    0.500000    0.000000
     8  O3    s     0.246451    0.246451    0.893024    0.000000
     9  O4    s     0.019429    0.019429    0.325656    0.000000
--------------------------------------------------------------------------------

  Final Cartesian lattice vectors (Angstroms) :

        6.758986    3.902302    4.843739
       -6.758986    3.902302    4.843739
        0.000000   -7.804605    4.843739


  Final cell parameters and derivatives :

--------------------------------------------------------------------------------
       a            9.185514 Angstrom     dE/de1(xx)    -0.000091 eV/strain
       b            9.185514 Angstrom     dE/de2(yy)     0.000000 eV/strain
       c            9.185514 Angstrom     dE/de3(zz)    -0.000053 eV/strain
       alpha       94.754965 Degrees      dE/de4(yz)     0.000000 eV/strain
       beta        94.754965 Degrees      dE/de5(xz)     0.000000 eV/strain
       gamma       94.754965 Degrees      dE/de6(xy)     0.000000 eV/strain
--------------------------------------------------------------------------------

  Primitive cell volume =           766.539305 Angs**3

  Density of cell =      1.562086 g/cm**3

  Non-primitive lattice parameters :

  a    =    13.517972  b   =    13.517972  c    =    14.531217
  alpha=    90.000000  beta=    90.000000  gamma=   120.000000

  Non-primitive cell volume =          2299.617915 Angs**3


  Final internal derivatives :

--------------------------------------------------------------------------------
   No.  Atomic          a             b             c           Radius
        Label          (eV)          (eV)          (eV)        (eV/Angs)
--------------------------------------------------------------------------------
      1 Si    c       0.000596     -0.001158     -0.002928      0.000000
      2 O1    c      -0.000810      0.000000      0.000000      0.000000
      3 O2    c       0.000450      0.000000      0.000000      0.000000
      4 O3    c       0.000908      0.000000     -0.000230      0.000000
      5 O4    c      -0.000744      0.000000      0.000099      0.000000
      6 O1    s      -0.000056      0.000000      0.000000      0.000000
      7 O2    s      -0.000155      0.000000      0.000000      0.000000
      8 O3    s      -0.000540      0.000000     -0.000118      0.000000
      9 O4    s       0.000051      0.000000      0.000178      0.000000
--------------------------------------------------------------------------------
  Maximum abs         0.000908      0.001158      0.002928      0.000000
--------------------------------------------------------------------------------


  Born effective charge tensors : 

-------------------------------------------------------------------------------
  Atom             x           y             z
-------------------------------------------------------------------------------
    1 Si    x       3.5096     -0.0150     -0.4183
            y      -0.0187      2.9019      0.1046
            z      -0.3335      0.2825      3.2259
-------------------------------------------------------------------------------
    2 O1    x      -1.0827     -0.0000      0.0000
            y       0.0000     -1.1401     -0.2328
            z       0.0000     -0.0553     -2.4738
-------------------------------------------------------------------------------
    3 O2    x      -1.1187      0.0000     -0.0000
            y       0.0000     -2.2176      0.9234
            z      -0.0000      1.0010     -1.6893
-------------------------------------------------------------------------------
    4 O3    x      -2.7550      0.0000      0.0000
            y      -0.0000     -0.9795     -0.0477
            z      -0.0000     -0.0819     -1.1472
-------------------------------------------------------------------------------
    5 O4    x      -2.3679      0.0000     -0.0000
            y      -0.0000     -1.1614      0.1416
            z       0.0000      0.1279     -1.1415
-------------------------------------------------------------------------------




  Elastic Constant Matrix: (Units=GPa)

-------------------------------------------------------------------------------
  Indices      1         2         3         4         5         6    
-------------------------------------------------------------------------------
       1    121.3089   70.1314   63.8976    6.0976   -0.0000   -0.0000
       2     70.1314  121.3089   63.8976   -6.0976    0.0000    0.0000
       3     63.8976   63.8976   69.5858    0.0000   -0.0000   -0.0000
       4      6.0976   -6.0976    0.0000   27.8599    0.0000   -0.0000
       5     -0.0000    0.0000   -0.0000    0.0000   27.8599    6.0976
       6     -0.0000    0.0000   -0.0000   -0.0000    6.0976   25.5888
-------------------------------------------------------------------------------

  Elastic Constant Tensor Eigenvalues: (Units=GPa)

-------------------------------------------------------------------------------
     1 =    20.5219     2 =    21.5271     3 =    25.0174
     4 =    32.9267     5 =    54.0200     6 =   239.4990
-------------------------------------------------------------------------------


  Elastic Compliance Matrix: (Units=1/GPa)

-------------------------------------------------------------------------------
  Indices      1         2         3         4         5         6    
-------------------------------------------------------------------------------
       1    0.017056 -0.003559 -0.012394 -0.004512  0.000000  0.000000
       2   -0.003559  0.017056 -0.012394  0.004512 -0.000000 -0.000000
       3   -0.012394 -0.012394  0.037132  0.000000 -0.000000  0.000000
       4   -0.004512  0.004512  0.000000  0.037869 -0.000000 -0.000000
       5    0.000000 -0.000000 -0.000000 -0.000000  0.037869 -0.009024
       6    0.000000 -0.000000  0.000000 -0.000000 -0.009024  0.041230
-------------------------------------------------------------------------------

  Mechanical properties :

-------------------------------------------------------------------------------
  Convention :                    Reuss         Voigt         Hill
-------------------------------------------------------------------------------
  Bulk  Modulus (GPa)     =      68.72322      78.67298      73.69810
  Shear Modulus (GPa)     =      20.01972      23.88018      21.94995
-------------------------------------------------------------------------------
  Velocity S-wave (km/s)  =       3.57995       3.90991       3.74856
  Velocity P-wave (km/s)  =       7.81553       8.41113       8.11880
-------------------------------------------------------------------------------
  Compressibility (1/GPa) =    0.01455112
-------------------------------------------------------------------------------
  Stress axis :                     x             y             z
-------------------------------------------------------------------------------
  Youngs Moduli (GPa)     =      58.63079      58.63079      26.93123
-------------------------------------------------------------------------------
  Poissons Ratio (x)      =                     0.20867       0.33377
  Poissons Ratio (y)      =       0.20867                     0.33377
  Poissons Ratio (z)      =       0.72664       0.72664
-------------------------------------------------------------------------------


  Piezoelectric Strain Matrix: (Units=C/m**2)

-------------------------------------------------------------------------------
  Indices      1         2         3         4         5         6    
-------------------------------------------------------------------------------
       x     0.00000  -0.00000   0.00000   0.00000   0.00000   0.00000
       y     0.00000   0.00000  -0.00000   0.00000  -0.00000   0.00000
       z     0.00000   0.00000   0.00000  -0.00000  -0.00000  -0.00000
-------------------------------------------------------------------------------


  Piezoelectric Stress Matrix: (Units=10**-11 C/N)

-------------------------------------------------------------------------------
  Indices      1         2         3         4         5         6    
-------------------------------------------------------------------------------
       x     0.00000  -0.00000   0.00000   0.00000   0.00000   0.00000
       y     0.00000   0.00000  -0.00000   0.00000  -0.00000   0.00000
       z    -0.00000   0.00000   0.00000  -0.00000  -0.00000  -0.00000
-------------------------------------------------------------------------------


  Static dielectric constant tensor : 

-------------------------------------------------------------------------------
              x         y         z
-------------------------------------------------------------------------------
       x     2.95521  -0.00000  -0.00000
       y    -0.00000   2.95521   0.00000
       z    -0.00000   0.00000   2.99261
--------------------------------------------------------------------------------

  High frequency dielectric constant tensor : 

-------------------------------------------------------------------------------
              x         y         z
-------------------------------------------------------------------------------
       x     1.59761  -0.00000  -0.00000
       y    -0.00000   1.59761   0.00000
       z    -0.00000   0.00000   1.59900
-------------------------------------------------------------------------------

  Static refractive indices : 

-------------------------------------------------------------------------------
    1 =    1.71907      2 =    1.71907      3 =    1.72992
-------------------------------------------------------------------------------

  High frequency refractive indices : 

-------------------------------------------------------------------------------
    1 =    1.26397      2 =    1.26397      3 =    1.26452
-------------------------------------------------------------------------------


  Time to end of optimisation =       0.1466 seconds


********************************************************************************
*  Output for configuration   2 : quartz                                       *
********************************************************************************


  Components of energy : 

--------------------------------------------------------------------------------
  Interatomic potentials     =         103.20999232 eV    
  Three-body potentials      =           0.05739430 eV    
  Monopole - monopole (real) =        -110.50672066 eV    
  Monopole - monopole (recip)=        -379.16012035 eV    
  Monopole - monopole (total)=        -489.66684101 eV    
--------------------------------------------------------------------------------
  Total lattice energy       =        -386.39945439 eV    
--------------------------------------------------------------------------------
  Total lattice energy       =          -37281.6407 kJ/(mole unit cells)
--------------------------------------------------------------------------------


  Number of variables =        9

  Maximum number of calculations  =          1000
  Maximum Hessian update interval =            10
  Maximum step size               =  10.000000000
  Maximum parameter tolerance     =   0.000010000
  Maximum function  tolerance     =   0.000010000
  Maximum gradient  tolerance     =   0.001000000
  Maximum gradient  component     =   0.010000000

  Symmetry constrained optimisation

  Symmetry used for second derivatives

  Cell parameters to be optimised using strains

  Newton-Raphson optimiser to be used

  BFGS hessian update to be used

  Lower half triangular hessian to be used

  Start of bulk optimisation :

  Cycle:      0 Energy:      -386.399454  Gnorm:      3.533988  CPU:    0.148
  ** Hessian calculated **
  Cycle:      1 Energy:      -386.461390  Gnorm:      0.261481  CPU:    0.151
  Cycle:      2 Energy:      -386.462755  Gnorm:      0.069486  CPU:    0.153
  Cycle:      3 Energy:      -386.462853  Gnorm:      0.018447  CPU:    0.155


  **** Optimisation achieved ****


  Final energy =    -386.46285441 eV
  Final Gnorm  =       0.00081785

  Components of energy : 

--------------------------------------------------------------------------------
  Interatomic potentials     =         107.02309245 eV    
  Three-body potentials      =           0.04838964 eV    
  Monopole - monopole (real) =        -108.22556128 eV    
  Monopole - monopole (recip)=        -385.30877522 eV    
  Monopole - monopole (total)=        -493.53433650 eV    
--------------------------------------------------------------------------------
  Total lattice energy       =        -386.46285441 eV    
--------------------------------------------------------------------------------
  Total lattice energy       =          -37287.7578 kJ/(mole unit cells)
--------------------------------------------------------------------------------

  Final asymmetric unit coordinates :

--------------------------------------------------------------------------------
   No.  Atomic        x           y           z         Radius
        Label       (Frac)      (Frac)      (Frac)       (Angs) 
--------------------------------------------------------------------------------
     1  Si    c     0.463538    0.000000    0.333333    0.000000
     2  O     c     0.408010    0.278919    0.225106    0.000000
     3  O     s     0.428008    0.276249    0.213152    0.000000
--------------------------------------------------------------------------------

  Final Cartesian lattice vectors (Angstroms) :

        4.827029    0.000000    0.000000
       -2.413515    4.180330    0.000000
        0.000000    0.000000    5.337262


  Final cell parameters and derivatives :

--------------------------------------------------------------------------------
       a            4.827029 Angstrom     dE/de1(xx)    -0.001658 eV/strain
       b            4.827029 Angstrom     dE/de2(yy)     0.000000 eV/strain
       c            5.337262 Angstrom     dE/de3(zz)    -0.002320 eV/strain
       alpha       90.000000 Degrees      dE/de4(yz)     0.000000 eV/strain
       beta        90.000000 Degrees      dE/de5(xz)     0.000000 eV/strain
       gamma      120.000000 Degrees      dE/de6(xy)     0.000000 eV/strain
--------------------------------------------------------------------------------

  Primitive cell volume =           107.698349 Angs**3

  Density of cell =      2.779524 g/cm**3

  Non-primitive cell volume =           107.698349 Angs**3


  Final internal derivatives :

--------------------------------------------------------------------------------
   No.  Atomic          a             b             c           Radius
        Label          (eV)          (eV)          (eV)        (eV/Angs)
--------------------------------------------------------------------------------
      1 Si    c       0.001737      0.000000      0.000000      0.000000
      2 O     c       0.003722      0.002340     -0.004108      0.000000
      3 O     s      -0.002522     -0.000358      0.000581      0.000000
--------------------------------------------------------------------------------
  Maximum abs         0.003722      0.002340      0.004108      0.000000
--------------------------------------------------------------------------------


  Born effective charge tensors : 

-------------------------------------------------------------------------------
  Atom             x           y             z
-------------------------------------------------------------------------------
    1 Si    x       3.1535      0.0000      0.0000
            y       0.0000      3.5630      0.3410
            z       0.0000     -0.1983      3.4589
-------------------------------------------------------------------------------
    2 O     x      -1.4074      0.3813     -0.2537
            y       0.3769     -1.9508      0.5354
            z      -0.1668      0.5949     -1.7294
-------------------------------------------------------------------------------




  Elastic Constant Matrix: (Units=GPa)

-------------------------------------------------------------------------------
  Indices      1         2         3         4         5         6    
-------------------------------------------------------------------------------
       1     95.1347   18.8270   20.0048  -14.4087    0.0000    0.0000
       2     18.8270   95.1347   20.0048   14.4087   -0.0000   -0.0000
       3     20.0048   20.0048  116.9100   -0.0000    0.0000   -0.0000
       4    -14.4087   14.4087   -0.0000   50.2674    0.0000   -0.0000
       5      0.0000   -0.0000    0.0000    0.0000   50.2674  -14.4087
       6      0.0000   -0.0000   -0.0000   -0.0000  -14.4087   38.1538
-------------------------------------------------------------------------------

  Elastic Constant Tensor Eigenvalues: (Units=GPa)

-------------------------------------------------------------------------------
     1 =    28.5807     2 =    39.1060     3 =    59.8405
     4 =    87.1064     5 =    87.4690     6 =   143.7652
-------------------------------------------------------------------------------


  Elastic Compliance Matrix: (Units=1/GPa)

-------------------------------------------------------------------------------
  Indices      1         2         3         4         5         6    
-------------------------------------------------------------------------------
       1    0.012016 -0.002680 -0.001597  0.004212 -0.000000 -0.000000
       2   -0.002680  0.012016 -0.001597 -0.004212  0.000000  0.000000
       3   -0.001597 -0.001597  0.009100 -0.000000  0.000000  0.000000
       4    0.004212 -0.004212 -0.000000  0.022308 -0.000000  0.000000
       5   -0.000000  0.000000  0.000000 -0.000000  0.022308  0.008425
       6   -0.000000  0.000000  0.000000  0.000000  0.008425  0.029391
-------------------------------------------------------------------------------

  Mechanical properties :

-------------------------------------------------------------------------------
  Convention :                    Reuss         Voigt         Hill
-------------------------------------------------------------------------------
  Bulk  Modulus (GPa)     =      46.76857      47.20581      46.98719
  Shear Modulus (GPa)     =      39.67722      44.29390      41.98556
-------------------------------------------------------------------------------
  Velocity S-wave (km/s)  =       3.77820       3.99197       3.88655
  Velocity P-wave (km/s)  =       5.98826       6.18313       6.08647
-------------------------------------------------------------------------------
  Compressibility (1/GPa) =    0.02138188
-------------------------------------------------------------------------------
  Stress axis :                     x             y             z
-------------------------------------------------------------------------------
  Youngs Moduli (GPa)     =      83.22466      83.22466     109.88674
-------------------------------------------------------------------------------
  Poissons Ratio (x)      =                     0.22304       0.17554
  Poissons Ratio (y)      =       0.22304                     0.17554
  Poissons Ratio (z)      =       0.13295       0.13295
-------------------------------------------------------------------------------


  Piezoelectric Strain Matrix: (Units=C/m**2)

-------------------------------------------------------------------------------
  Indices      1         2         3         4         5         6    
-------------------------------------------------------------------------------
       x     2.68919  -2.68919  -0.00000  -1.42849   0.00000   0.00000
       y     0.00000  -0.00000  -0.00000   0.00000   1.42849  -2.68919
       z    -0.00000  -0.00000   0.00000   0.00000   0.00000  -0.00000
-------------------------------------------------------------------------------


  Piezoelectric Stress Matrix: (Units=10**-11 C/N)

-------------------------------------------------------------------------------
  Indices      1         2         3         4         5         6    
-------------------------------------------------------------------------------
       x     3.35020  -3.35020  -0.00000  -0.92118   0.00000   0.00000
       y     0.00000  -0.00000  -0.00000   0.00000   0.92118  -6.70040
       z    -0.00000  -0.00000   0.00000   0.00000   0.00000  -0.00000
-------------------------------------------------------------------------------


  Static dielectric constant tensor : 

-------------------------------------------------------------------------------
              x         y         z
-------------------------------------------------------------------------------
       x     4.78522  -0.00000  -0.00000
       y    -0.00000   4.78522   0.00000
       z    -0.00000   0.00000   5.05760
--------------------------------------------------------------------------------

  High frequency dielectric constant tensor : 

-------------------------------------------------------------------------------
              x         y         z
-------------------------------------------------------------------------------
       x     2.12555  -0.00000   0.00000
       y    -0.00000   2.12555  -0.00000
       z     0.00000  -0.00000   2.14916
-------------------------------------------------------------------------------

  Static refractive indices : 

-------------------------------------------------------------------------------
    1 =    2.18752      2 =    2.18752      3 =    2.24891
-------------------------------------------------------------------------------

  High frequency refractive indices : 

-------------------------------------------------------------------------------
    1 =    1.45793      2 =    1.45793      3 =    1.46600
-------------------------------------------------------------------------------


  Time to end of optimisation =       0.1624 seconds


  Peak dynamic memory used =       1.39 MB 


  Timing analysis for GULP :

--------------------------------------------------------------------------------
  Task / Subroutine                                          Time (Seconds)
--------------------------------------------------------------------------------
  Calculation of reciprocal space energy and derivatives          0.0086
  Calculation of reciprocal space energy using symmetry           0.0136
  Calculation of real space energy and derivatives                0.0365
  Calculation of real space energy using symmetry                 0.0842
  Calculation of three-body energy and derivatives                0.0048
  Symmetry generation of equivalent positions                     0.0019
--------------------------------------------------------------------------------
  Total CPU time                                                  0.1624
--------------------------------------------------------------------------------


  Job Finished at 15:18.33  4th July       2018                               

