********************************************************************************
*                       GENERAL UTILITY LATTICE PROGRAM                        *
*                                 Julian Gale                                  *
*                       Curtin Institute for Computation                       *
*                           Department of Chemistry                            *
*                    Curtin University, Western Australia                      *
********************************************************************************
* Version = 5.1.0 * Last modified =  25th June 2018                            *
********************************************************************************
*  optimise     - perform optimisation run                                     *
*  conp         - constant pressure calculation                                *
*  property     - calculate properties for final geometry                      *
*  phonon       - calculate phonons for final geometry                         *
*  nosymmetry   - turn off symmetry after initial structure generation         *
*  full         - generate full unit cell when symmetry is removed             *
*  sm           - electronegativity equalisation method (Streitz and Mintmire) *
*  eembond      - split bond electronegativity equalisation method to be used  *
*  bond         - calculate bond lengths                                       *
*  molq         - molecule option activated, but with Coulomb terms retained   *
********************************************************************************

  Job Started  at 10:33.47 25th June       2018                               

  Number of CPUs =     1

  Host name      = M-A0010516-S                            


  Total number of configurations input =      1

********************************************************************************
*  Input for Configuration =   1                                               *
********************************************************************************

  Formula = O4Li8                                                       

  Number of irreducible atoms/shells =      12


  Total number atoms/shells =      12

  Dimensionality = 3               :  Bulk   



  Cartesian lattice vectors (Angstroms) :

        4.660000    0.000000    0.000000
        0.000000    4.660000    0.000000
        0.000000    0.000000    4.660000

  Cell parameters (Angstroms/Degrees):

  a =       4.6600    alpha =  90.0000
  b =       4.6600    beta  =  90.0000
  c =       4.6600    gamma =  90.0000

  Initial cell volume =         101.194696 Angs**3

  Temperature of configuration =  0.000     K 

  Pressure of configuration =         0.000 GPa 

  Fractional coordinates of asymmetric unit :

--------------------------------------------------------------------------------
   No.  Atomic       x           y          z         Charge      Occupancy
        Label      (Frac)      (Frac)     (Frac)        (e)         (Frac)  
--------------------------------------------------------------------------------
      1 O     c    0.000000    0.000000    0.000000     0.00000    1.000000    
      2 O     c    0.000000 *  0.500000 *  0.500000 *   0.00000    1.000000    
      3 O     c    0.500000 *  0.000000 *  0.500000 *   0.00000    1.000000    
      4 O     c    0.500000 *  0.500000 *  0.000000 *   0.00000    1.000000    
      5 Li    c    0.250000 *  0.250000 *  0.250000 *   0.00000    1.000000    
      6 Li    c    0.250000 *  0.750000 *  0.750000 *   0.00000    1.000000    
      7 Li    c    0.750000 *  0.250000 *  0.750000 *   0.00000    1.000000    
      8 Li    c    0.750000 *  0.750000 *  0.250000 *   0.00000    1.000000    
      9 Li    c    0.750000 *  0.750000 *  0.750000 *   0.00000    1.000000    
     10 Li    c    0.750000 *  0.250000 *  0.250000 *   0.00000    1.000000    
     11 Li    c    0.250000 *  0.750000 *  0.250000 *   0.00000    1.000000    
     12 Li    c    0.250000 *  0.250000 *  0.750000 *   0.00000    1.000000    
--------------------------------------------------------------------------------



  Molecule list generated from bond lengths :

  Bonds between the following atom types will be excluded : 

   Li    Core   - Li    Core
   Li    Core   - Mn    Core
   Mn    Core   - Mn    Core
   O     Core   - O     Core


  Total number of molecules =     1

--------------------------------------------------------------------------------
Molecule No./:  Atoms
Periodicity  :  
--------------------------------------------------------------------------------
     1  3    : O    c     1 O    c     2 O    c     3 O    c     4 Li   c     5
             : Li   c     6 Li   c     7 Li   c     8 Li   c     9 Li   c    10
             : Li   c    11 Li   c    12
--------------------------------------------------------------------------------


  Bond calculation :

--------------------------------------------------------------------------------
  Asymmetric unit site  Full lattice sites    No.  Distance      Bond Type      
                                                    (Angs)                      
--------------------------------------------------------------------------------
      1    O     core        Li    core        8    2.0178                 
--------------------------------------------------------------------------------
      2    O     core        Li    core        8    2.0178                 
--------------------------------------------------------------------------------
      3    O     core        Li    core        8    2.0178                 
--------------------------------------------------------------------------------
      4    O     core        Li    core        8    2.0178                 
--------------------------------------------------------------------------------
      5    Li    core        O     core        4    2.0178                 
--------------------------------------------------------------------------------
      6    Li    core        O     core        4    2.0178                 
--------------------------------------------------------------------------------
      7    Li    core        O     core        4    2.0178                 
--------------------------------------------------------------------------------
      8    Li    core        O     core        4    2.0178                 
--------------------------------------------------------------------------------
      9    Li    core        O     core        4    2.0178                 
--------------------------------------------------------------------------------
     10    Li    core        O     core        4    2.0178                 
--------------------------------------------------------------------------------
     11    Li    core        O     core        4    2.0178                 
--------------------------------------------------------------------------------
     12    Li    core        O     core        4    2.0178                 
--------------------------------------------------------------------------------
  Total number of bonds =       32
--------------------------------------------------------------------------------


  Brillouin zone sampling points :

--------------------------------------------------------------------------------
  Point number          x          y          z            Weight
--------------------------------------------------------------------------------
        1           0.000000   0.000000   0.000000     1.00000000
--------------------------------------------------------------------------------


********************************************************************************
*  General input information                                                   *
********************************************************************************

  Species output for all configurations : 

--------------------------------------------------------------------------------
  Species    Type    Atomic    Atomic    Charge       Radii (Angs)     Library
                     Number     Mass       (e)     Cova   Ionic  VDW   Symbol
--------------------------------------------------------------------------------
    O        Core        8      16.00   0.000000   1.030  0.000  1.360          
    Li       Core        3       6.94   0.000000   0.980  0.000  1.800          
--------------------------------------------------------------------------------



  Charge equilibration parameters for Streitz and Mintmire: 

--------------------------------------------------------------------------------
  Element   Chi        Mu       Zeta      Znuc     Q0       E0     Qmin    Qmax 
            (eV)      (eV)     (1/Ang)    (au)    (au)     (eV)    (au)    (au) 
--------------------------------------------------------------------------------
   Li    90.50000    75.00000  10.0000   0.0000   0.0000  50.000    -     -1.000
   Li  -109.50000    75.00000  10.0000   0.0000   0.0000  50.000   1.000    -   
   Li    -9.50000    25.00000  10.0000   0.0000   0.0000   0.000  -1.000   1.000
   O    221.37000    65.88000   2.3900   0.0000   0.0000 205.630    -     -2.000
   O   -201.15000    65.88000   2.3900   0.0000   0.0000 205.630   2.000    -   
   O     21.37000    15.88000   2.3900   0.0000   0.0000   5.630  -2.000  -1.000
   O     10.11000    10.25000   2.3900   0.0000   0.0000   0.000  -1.000   1.000
   O     -1.15000    15.88000   2.3900   0.0000   0.0000   5.630   1.000   2.000
--------------------------------------------------------------------------------


  Lattice summation method               =    Ewald          (3-D)
                                         =    Parry          (2-D)
                                         =    Saunders et al (1-D)
  Accuracy factor for lattice sums       =   12.000


  Time limit = Infinity

  Maximum range for interatomic potentials =         4.800000 Angstroms

  Taper potentials to zero over   1.0000 Angstroms using M-D-F

  General interatomic potentials :

--------------------------------------------------------------------------------
Atom  Types   Potential      Parameter       Value         Units   Cutoffs(Ang)
  1     2                                                            Min /  Max 
--------------------------------------------------------------------------------
Li   c Li   c Many-body                                             0.000  4.800
--------------------------------------------------------------------------------
Li   c O    c Many-body                                             0.000  4.800
--------------------------------------------------------------------------------
O    c O    c Many-body                                             0.000  4.800
--------------------------------------------------------------------------------
Li   c Li   c Baskes        Baskes Ec        1.6500000    eV        0.000  8.000
                            Baskes A        0.95000000    None      
                            Baskes alpha     3.0982600    None      
                            Baskes r0        3.0200000    Ang       
                            Baskes Z         8.0000000    None      
                            Baskes rho0      1.0000000    None      
                            Baskes d        0.50000000E-01None      
--------------------------------------------------------------------------------
O    c O    c Baskes        Baskes Ec        2.5600000    eV        0.000  8.000
                            Baskes A         1.4400000    None      
                            Baskes alpha     6.8800000    None      
                            Baskes r0        1.2100000    Ang       
                            Baskes Z         1.0000000    None      
                            Baskes rho0      1.0000000    None      
                            Baskes d         0.0000000    None      
--------------------------------------------------------------------------------
Li   c O    c Baskes        Baskes Ec        1.6836000    eV        0.000  8.000
                            Baskes A         1.0000000    None      
                            Baskes alpha     7.3151056    None      
                            Baskes r0        1.9500000    Ang       
                            Baskes Z         6.0000000    None      
                            Baskes rho0     0.50000000    None      
                            Baskes d        0.70000000E-01None      
--------------------------------------------------------------------------------

  Modified Embedded Atom Model Densities :

--------------------------------------------------------------------------------
  Atom(s)       Functional/Order        A          B          C         n      
--------------------------------------------------------------------------------
  Li   c        Baskes       0      0.5000      1.650      3.020         0
                             1      0.5000      1.000      3.020         0
                             2      0.5000      4.000      3.020         0
                             3      0.5000      1.000      3.020         0
  O    c        Baskes       0       12.00      5.470      1.210         0
                             1       12.00      5.300      1.210         0
                             2       12.00      5.180      1.210         0
                             3       12.00      5.570      1.210         0
--------------------------------------------------------------------------------


  Embedded Atom Model alloy parameters :

--------------------------------------------------------------------------------
  Atom(s)                          Scale factor 
--------------------------------------------------------------------------------
  Li    c                            1.000000
  O     c                            1.000000
--------------------------------------------------------------------------------

  Embedded Atom Model functional = Baskes

--------------------------------------------------------------------------------
  Atom                     Ec          A            rho0
--------------------------------------------------------------------------------
  Li    c               1.650000   0.950000        6.17192    
          MEAM type = exponential : 24 term
          MEAM order/coefficients =  4   1.0000   2.3000   5.0000   0.5000
  O     c               2.560000    1.44000        13.0374    
          MEAM type = exponential : 24 term
          MEAM order/coefficients =  4   1.0000   0.1000   0.1100   0.0000
--------------------------------------------------------------------------------


  Manybody second derivative cross term cutoffs to be scaled by = 0.50000000
  Modified Embedded Atom Model screening parameters 

--------------------------------------------------------------------------------
  Atom 1    Atom 2    Atom 3            C_min       C_max 
--------------------------------------------------------------------------------
  Li    c   Li    c   Li    c          0.160000    2.800000
  Li    c   O     c   Li    c          0.700000    1.350000
  Li    c   O     c   O     c          0.300000    1.550000
  O     c   Li    c   Li    c          1.000000    1.550000
  O     c   O     c   Li    c          0.600000    2.150000
  O     c   O     c   O     c          2.000000    2.800000
--------------------------------------------------------------------------------


********************************************************************************
*  Output for configuration   1                                                *
********************************************************************************

  Iterative solution of charge equilibration :

  ** Cycle :    1 Qdiff : 0.47463980
  ** Cycle :    2 Qdiff : 0.00000000


  Final charges from split-bond EEM :

--------------------------------------------------------------------------------
    Atom no.            Atomic No.             Charge
--------------------------------------------------------------------------------
         1                   8                -0.7119597
         2                   8                -0.7119597
         3                   8                -0.7119597
         4                   8                -0.7119597
         5                   3                 0.3559799
         6                   3                 0.3559799
         7                   3                 0.3559799
         8                   3                 0.3559799
         9                   3                 0.3559799
        10                   3                 0.3559799
        11                   3                 0.3559799
        12                   3                 0.3559799
--------------------------------------------------------------------------------
    Bond no.            Atom Nos.              Charge
--------------------------------------------------------------------------------
         1                 5     1            -0.7119597
         2                 5     2             0.3559799
         3                 5     3             0.3559799
         4                 5     4             0.3559799
         5                 6     2             0.3559799
         6                 7     3             0.3559799
         7                 8     4             0.3559799
         8                 9     1             0.3559799
         9                10     1             0.3559799
        10                11     1             0.3559799
        11                12     1             0.3559799
--------------------------------------------------------------------------------
  Self energy       =        -9.719437 eV
--------------------------------------------------------------------------------

  Components of energy : 

--------------------------------------------------------------------------------
  Interatomic potentials     =         -13.54504126 eV    
  Many-body potentials       =          -5.89469051 eV    
  Monopole - monopole (real) =          -6.69333229 eV    
  Monopole - monopole (recip)=         -11.53325235 eV    
  Monopole - monopole (total)=         -18.22658464 eV    
  Self energy (EEM/QEq/SM)   =          -9.71943680 eV    
  SM Coulomb correction      =           0.02296189 eV    
--------------------------------------------------------------------------------
  Total lattice energy       =         -47.36279132 eV    
--------------------------------------------------------------------------------
  Total lattice energy       =           -4569.7854 kJ/(mole unit cells)
--------------------------------------------------------------------------------


  Number of variables =       39

  Maximum number of calculations  =          1000
  Maximum Hessian update interval =            10
  Maximum step size               =  10.000000000
  Maximum parameter tolerance     =   0.000010000
  Maximum function  tolerance     =   0.000010000
  Maximum gradient  tolerance     =   0.001000000
  Maximum gradient  component     =   0.010000000

  Cell parameters to be optimised using strains

  Newton-Raphson optimiser to be used

  BFGS hessian update to be used

  Lower half triangular hessian to be used

  Dumpfile to be written after every cycle

  Start of bulk optimisation :

  Cycle:      0 Energy:       -47.362791  Gnorm:      0.120778  CPU:    0.119
  Cycle:      1 Energy:       -47.409811  Gnorm:      0.003352  CPU:    0.346
  Cycle:      2 Energy:       -47.409852  Gnorm:      0.000022  CPU:    0.580


  **** Optimisation achieved ****


  Final energy =     -47.40985160 eV
  Final Gnorm  =       0.00002167

  Components of energy : 

--------------------------------------------------------------------------------
  Interatomic potentials     =         -13.40359319 eV    
  Many-body potentials       =          -6.29376333 eV    
  Monopole - monopole (real) =          -6.51512573 eV    
  Monopole - monopole (recip)=         -11.22618539 eV    
  Monopole - monopole (total)=         -17.74131112 eV    
  Self energy (EEM/QEq/SM)   =          -9.99135652 eV    
  SM Coulomb correction      =           0.02017257 eV    
--------------------------------------------------------------------------------
  Total lattice energy       =         -47.40985160 eV    
--------------------------------------------------------------------------------
  Total lattice energy       =           -4574.3260 kJ/(mole unit cells)
--------------------------------------------------------------------------------

  Final fractional coordinates of atoms :

--------------------------------------------------------------------------------
   No.  Atomic        x           y           z         Radius      Charge
        Label       (Frac)      (Frac)     (Frac)       (Angs) 
--------------------------------------------------------------------------------
     1  O     c     0.000000    0.000000    0.000000    0.000000   -0.706591
     2  O     c     0.000000    0.500000    0.500000    0.000000   -0.706591
     3  O     c     0.500000    0.000000    0.500000    0.000000   -0.706591
     4  O     c     0.500000    0.500000    0.000000    0.000000   -0.706591
     5  Li    c     0.250000    0.250000    0.250000    0.000000    0.353295
     6  Li    c     0.250000    0.750000    0.750000    0.000000    0.353295
     7  Li    c     0.750000    0.250000    0.750000    0.000000    0.353295
     8  Li    c     0.750000    0.750000    0.250000    0.000000    0.353295
     9  Li    c     0.750000    0.750000    0.750000    0.000000    0.353295
    10  Li    c     0.750000    0.250000    0.250000    0.000000    0.353295
    11  Li    c     0.250000    0.750000    0.250000    0.000000    0.353295
    12  Li    c     0.250000    0.250000    0.750000    0.000000    0.353295
--------------------------------------------------------------------------------

  Final Cartesian lattice vectors (Angstroms) :

        4.715533    0.000000    0.000000
        0.000000    4.715533    0.000000
        0.000000    0.000000    4.715533


  Final cell parameters and derivatives :

--------------------------------------------------------------------------------
       a            4.715533 Angstrom     dE/de1(xx)     0.000488 eV/strain
       b            4.715533 Angstrom     dE/de2(yy)     0.000488 eV/strain
       c            4.715533 Angstrom     dE/de3(zz)     0.000488 eV/strain
       alpha       90.000000 Degrees      dE/de4(yz)     0.000000 eV/strain
       beta        90.000000 Degrees      dE/de5(xz)     0.000000 eV/strain
       gamma       90.000000 Degrees      dE/de6(xy)     0.000000 eV/strain
--------------------------------------------------------------------------------

  Primitive cell volume =           104.855753 Angs**3

  Density of cell =      1.892798 g/cm**3

  Non-primitive cell volume =           104.855753 Angs**3


  Final internal derivatives :

--------------------------------------------------------------------------------
   No.  Atomic          a             b             c           Radius
        Label          (eV)          (eV)          (eV)        (eV/Angs)
--------------------------------------------------------------------------------
      1 O     c       0.000000      0.000000      0.000000      0.000000
      2 O     c       0.000000      0.000000      0.000000      0.000000
      3 O     c       0.000000      0.000000     -0.000000      0.000000
      4 O     c       0.000000     -0.000000      0.000000      0.000000
      5 Li    c       0.000000      0.000000     -0.000000      0.000000
      6 Li    c       0.000000      0.000000      0.000000      0.000000
      7 Li    c      -0.000000     -0.000000      0.000000      0.000000
      8 Li    c      -0.000000      0.000000     -0.000000      0.000000
      9 Li    c      -0.000000      0.000000      0.000000      0.000000
     10 Li    c      -0.000000     -0.000000     -0.000000      0.000000
     11 Li    c       0.000000     -0.000000     -0.000000      0.000000
     12 Li    c       0.000000     -0.000000      0.000000      0.000000
--------------------------------------------------------------------------------
  Maximum abs         0.000000      0.000000      0.000000      0.000000
--------------------------------------------------------------------------------


  Bond calculation :

--------------------------------------------------------------------------------
  Asymmetric unit site  Full lattice sites    No.  Distance      Bond Type      
                                                    (Angs)                      
--------------------------------------------------------------------------------
      1    O     core        Li    core        8    2.0419                 
--------------------------------------------------------------------------------
      2    O     core        Li    core        8    2.0419                 
--------------------------------------------------------------------------------
      3    O     core        Li    core        8    2.0419                 
--------------------------------------------------------------------------------
      4    O     core        Li    core        8    2.0419                 
--------------------------------------------------------------------------------
      5    Li    core        O     core        4    2.0419                 
--------------------------------------------------------------------------------
      6    Li    core        O     core        4    2.0419                 
--------------------------------------------------------------------------------
      7    Li    core        O     core        4    2.0419                 
--------------------------------------------------------------------------------
      8    Li    core        O     core        4    2.0419                 
--------------------------------------------------------------------------------
      9    Li    core        O     core        4    2.0419                 
--------------------------------------------------------------------------------
     10    Li    core        O     core        4    2.0419                 
--------------------------------------------------------------------------------
     11    Li    core        O     core        4    2.0419                 
--------------------------------------------------------------------------------
     12    Li    core        O     core        4    2.0419                 
--------------------------------------------------------------------------------
  Total number of bonds =       32
--------------------------------------------------------------------------------




  Elastic Constant Matrix: (Units=GPa)

-------------------------------------------------------------------------------
  Indices      1         2         3         4         5         6    
-------------------------------------------------------------------------------
       1    249.7265   37.1768   37.1768    0.0000   -0.0000    0.0000
       2     37.1768  249.7265   37.1768    0.0000    0.0000    0.0000
       3     37.1768   37.1768  249.7265   -0.0000    0.0000    0.0000
       4      0.0000    0.0000   -0.0000   54.9521    0.0000    0.0000
       5     -0.0000    0.0000    0.0000    0.0000   54.9521   -0.0000
       6      0.0000    0.0000    0.0000    0.0000   -0.0000   54.9521
-------------------------------------------------------------------------------

  Elastic Constant Tensor Eigenvalues: (Units=GPa)

-------------------------------------------------------------------------------
     1 =    54.9521     2 =    54.9521     3 =    54.9521
     4 =   212.5497     5 =   212.5497     6 =   324.0801
-------------------------------------------------------------------------------


  Elastic Compliance Matrix: (Units=1/GPa)

-------------------------------------------------------------------------------
  Indices      1         2         3         4         5         6    
-------------------------------------------------------------------------------
       1    0.004165 -0.000540 -0.000540 -0.000000  0.000000 -0.000000
       2   -0.000540  0.004165 -0.000540 -0.000000 -0.000000  0.000000
       3   -0.000540 -0.000540  0.004165  0.000000 -0.000000 -0.000000
       4   -0.000000 -0.000000  0.000000  0.018198 -0.000000 -0.000000
       5    0.000000 -0.000000 -0.000000 -0.000000  0.018198  0.000000
       6   -0.000000  0.000000 -0.000000 -0.000000  0.000000  0.018198
-------------------------------------------------------------------------------

  Mechanical properties :

-------------------------------------------------------------------------------
  Convention :                    Reuss         Voigt         Hill
-------------------------------------------------------------------------------
  Bulk  Modulus (GPa)     =     108.02672     108.02672     108.02672
  Shear Modulus (GPa)     =      68.10860      75.48118      71.79489
-------------------------------------------------------------------------------
  Velocity S-wave (km/s)  =       5.99858       6.31491       6.15878
  Velocity P-wave (km/s)  =      10.24938      10.49968      10.37529
-------------------------------------------------------------------------------
  Compressibility (1/GPa) =    0.00925697
-------------------------------------------------------------------------------
  Stress axis :                     x             y             z
-------------------------------------------------------------------------------
  Youngs Moduli (GPa)     =     240.09183     240.09183     240.09183
-------------------------------------------------------------------------------
  Poissons Ratio (x)      =                     0.12958       0.12958
  Poissons Ratio (y)      =       0.12958                     0.12958
  Poissons Ratio (z)      =       0.12958       0.12958
-------------------------------------------------------------------------------


  Piezoelectric Strain Matrix: (Units=C/m**2)

-------------------------------------------------------------------------------
  Indices      1         2         3         4         5         6    
-------------------------------------------------------------------------------
       x    -0.00000   0.00000   0.00000  -0.00000  -0.00000   0.00000
       y    -0.00000   0.00000  -0.00000   0.00000  -0.00000  -0.00000
       z     0.00000   0.00000   0.00000  -0.00000  -0.00000   0.00000
-------------------------------------------------------------------------------


  Piezoelectric Stress Matrix: (Units=10**-11 C/N)

-------------------------------------------------------------------------------
  Indices      1         2         3         4         5         6    
-------------------------------------------------------------------------------
       x    -0.00000   0.00000   0.00000  -0.00000  -0.00000   0.00000
       y    -0.00000   0.00000  -0.00000   0.00000  -0.00000  -0.00000
       z     0.00000   0.00000   0.00000  -0.00000  -0.00000   0.00000
-------------------------------------------------------------------------------


  Static dielectric constant tensor : 

-------------------------------------------------------------------------------
              x         y         z
-------------------------------------------------------------------------------
       x     1.34677  -0.00000   0.00000
       y    -0.00000   1.34677   0.00000
       z     0.00000   0.00000   1.34677
--------------------------------------------------------------------------------

  Static refractive indices : 

-------------------------------------------------------------------------------
    1 =    1.16050      2 =    1.16050      3 =    1.16050
-------------------------------------------------------------------------------


  Phonon Calculation : 

  Number of k points for this configuration =        1

--------------------------------------------------------------------------------
  K point      1 =   0.000000  0.000000  0.000000  Weight =    1.000
--------------------------------------------------------------------------------

  Frequencies (cm-1) [NB: Negative implies an imaginary mode]:

   -0.00   -0.00   -0.00  319.83  319.83  319.83  319.83  319.83  319.83
  364.43  364.43  364.43  392.84  392.84  392.84  392.84  392.84  392.84
  425.52  425.52  425.52  563.34  563.34  563.34  603.02  603.02  603.02
  646.42  646.42  646.42  661.31  661.31  661.31  661.31  661.31  661.31


--------------------------------------------------------------------------------
  Phonon properties (per mole of unit cells): Temperature =      0.000 K
--------------------------------------------------------------------------------
  Zero point energy            =        0.995105 eV
--------------------------------------------------------------------------------

  Time to end of optimisation =      13.5441 seconds

  Iterative solution of charge equilibration :

  ** Cycle :    1 Qdiff : 0.00000013


  Final charges from split-bond EEM :

--------------------------------------------------------------------------------
    Atom no.            Atomic No.             Charge
--------------------------------------------------------------------------------
         1                   8                -0.7065909
         2                   8                -0.7065909
         3                   8                -0.7065909
         4                   8                -0.7065909
         5                   3                 0.3532954
         6                   3                 0.3532954
         7                   3                 0.3532954
         8                   3                 0.3532954
         9                   3                 0.3532954
        10                   3                 0.3532954
        11                   3                 0.3532954
        12                   3                 0.3532954
--------------------------------------------------------------------------------
    Bond no.            Atom Nos.              Charge
--------------------------------------------------------------------------------
         1                 5     1            -0.7065909
         2                 5     2             0.3532954
         3                 5     3             0.3532954
         4                 5     4             0.3532954
         5                 6     2             0.3532954
         6                 7     3             0.3532954
         7                 8     4             0.3532954
         8                 9     1             0.3532954
         9                10     1             0.3532954
        10                11     1             0.3532954
        11                12     1             0.3532954
--------------------------------------------------------------------------------
  Self energy       =        -9.991357 eV
--------------------------------------------------------------------------------

  Peak dynamic memory used =       1.23 MB 


  Timing analysis for GULP :

--------------------------------------------------------------------------------
  Task / Subroutine                                          Time (Seconds)
--------------------------------------------------------------------------------
  Calculation of reciprocal space energy and derivatives          0.0636
  Calculation of real space energy and derivatives               10.3728
  Calculation of many-body energy and derivatives                 2.3590
  Calculation of molecules and connectivity                       0.0054
  Calculation of phonons                                          3.8657
  Electronegativity equalisation                                  0.7242
  Symmetry generation of equivalent positions                     0.0068
  Global summation overhead                                       0.0003
--------------------------------------------------------------------------------
  Total CPU time                                                 13.5468
--------------------------------------------------------------------------------


  Dump file written as example66.res


  Job Finished at 10:34.00 25th June       2018                               

