********************************************************************************
*                       GENERAL UTILITY LATTICE PROGRAM                        *
*                                 Julian Gale                                  *
*                       Curtin Institute for Computation                       *
*                           Department of Chemistry                            *
*                    Curtin University, Western Australia                      *
********************************************************************************
* Version = 5.1.1 * Last modified =  11th April 2019                           *
********************************************************************************
*  single       - perform a single point run                                   *
*  phonon       - calculate phonons for final geometry                         *
********************************************************************************

  Job Started  at 15:30.50 11th June       2019                               

  Number of CPUs =     1


  Total number of configurations input =      1

********************************************************************************
*  Input for Configuration =   1                                               *
********************************************************************************

  Formula = ZnS                                                         

  Number of irreducible atoms/shells =       3


  Total number atoms/shells =       3

  Dimensionality = 3               :  Bulk   



  Cartesian lattice vectors (Angstroms) :

        3.854000    0.000000    0.000000
        1.927000    3.337662    0.000000
        1.927000    1.112554    3.146778

  Cell parameters (Angstroms/Degrees):

  a =       3.8540    alpha =  60.0000
  b =       3.8540    beta  =  60.0000
  c =       3.8540    gamma =  60.0000

  Initial cell volume =          40.478101 Angs**3

  Shrinking factors =      1     1     1

  Temperature of configuration =  0.000     K 

  Pressure of configuration =         0.000 GPa 

  Fractional coordinates of asymmetric unit :

--------------------------------------------------------------------------------
   No.  Atomic       x           y          z         Charge      Occupancy
        Label      (Frac)      (Frac)     (Frac)        (e)         (Frac)  
--------------------------------------------------------------------------------
      1 Zn    c    0.000000    0.000000    0.000000     2.00000    1.000000    
      2 S     c    0.250000    0.250000    0.250000     1.35700    1.000000    
      3 S     s    0.250000    0.250000    0.250000    -3.35700    1.000000    
--------------------------------------------------------------------------------


  Brillouin zone sampling points :

--------------------------------------------------------------------------------
  Point number          x          y          z            Weight
--------------------------------------------------------------------------------
        1           0.000000   0.000000   0.000000     0.01626016
        2           0.025000   0.000000   0.025000     0.01626016
        3           0.050000   0.000000   0.050000     0.01626016
        4           0.075000   0.000000   0.075000     0.01626016
        5           0.100000   0.000000   0.100000     0.01626016
        6           0.125000   0.000000   0.125000     0.01626016
        7           0.150000   0.000000   0.150000     0.01626016
        8           0.175000   0.000000   0.175000     0.01626016
        9           0.200000   0.000000   0.200000     0.01626016
       10           0.225000   0.000000   0.225000     0.01626016
       11           0.250000   0.000000   0.250000     0.01626016
       12           0.275000   0.000000   0.275000     0.01626016
       13           0.300000   0.000000   0.300000     0.01626016
       14           0.325000   0.000000   0.325000     0.01626016
       15           0.350000   0.000000   0.350000     0.01626016
       16           0.375000   0.000000   0.375000     0.01626016
       17           0.400000   0.000000   0.400000     0.01626016
       18           0.425000   0.000000   0.425000     0.01626016
       19           0.450000   0.000000   0.450000     0.01626016
       20           0.475000   0.000000   0.475000     0.01626016
       21           0.500000   0.000000   0.500000     0.01626016
       22           0.525000   0.050000   0.525000     0.01626016
       23           0.550000   0.100000   0.550000     0.01626016
       24           0.575000   0.150000   0.575000     0.01626016
       25           0.600000   0.200000   0.600000     0.01626016
       26           0.625000   0.250000   0.625000     0.01626016
       27           0.650000   0.300000   0.650000     0.01626016
       28           0.675000   0.350000   0.675000     0.01626016
       29           0.700000   0.400000   0.700000     0.01626016
       30           0.725000   0.450000   0.725000     0.01626016
       31           0.750000   0.500000   0.750000     0.01626016
       32           0.775000   0.550000   0.775000     0.01626016
       33           0.800000   0.600000   0.800000     0.01626016
       34           0.825000   0.650000   0.825000     0.01626016
       35           0.850000   0.700000   0.850000     0.01626016
       36           0.875000   0.750000   0.875000     0.01626016
       37           0.900000   0.800000   0.900000     0.01626016
       38           0.925000   0.850000   0.925000     0.01626016
       39           0.950000   0.900000   0.950000     0.01626016
       40           0.975000   0.950000   0.975000     0.01626016
       41           0.000000   0.000000   0.000000     0.01626016
       42           0.975000   0.975000   0.975000     0.01626016
       43           0.950000   0.950000   0.950000     0.01626016
       44           0.925000   0.925000   0.925000     0.01626016
       45           0.900000   0.900000   0.900000     0.01626016
       46           0.875000   0.875000   0.875000     0.01626016
       47           0.850000   0.850000   0.850000     0.01626016
       48           0.825000   0.825000   0.825000     0.01626016
       49           0.800000   0.800000   0.800000     0.01626016
       50           0.775000   0.775000   0.775000     0.01626016
       51           0.750000   0.750000   0.750000     0.01626016
       52           0.725000   0.725000   0.725000     0.01626016
       53           0.700000   0.700000   0.700000     0.01626016
       54           0.675000   0.675000   0.675000     0.01626016
       55           0.650000   0.650000   0.650000     0.01626016
       56           0.625000   0.625000   0.625000     0.01626016
       57           0.600000   0.600000   0.600000     0.01626016
       58           0.575000   0.575000   0.575000     0.01626016
       59           0.550000   0.550000   0.550000     0.01626016
       60           0.525000   0.525000   0.525000     0.01626016
       61           0.500000   0.500000   0.500000     0.01626016
       62           0.500000   0.500000   0.500000     0.00813008
--------------------------------------------------------------------------------


********************************************************************************
*  General input information                                                   *
********************************************************************************

  Species output for all configurations : 

--------------------------------------------------------------------------------
  Species    Type    Atomic    Atomic    Charge       Radii (Angs)     Library
                     Number     Mass       (e)     Cova   Ionic  VDW   Symbol
--------------------------------------------------------------------------------
    Zn       Core       30      65.39   2.000000   1.450  0.000  2.160          
    S        Core       16      32.07   1.357000   1.020  0.000  1.700          
    S        Shell      16       0.00  -3.357000   1.020  0.000  0.000          
--------------------------------------------------------------------------------


  Lattice summation method               =    Ewald          (3-D)
                                         =    Parry          (2-D)
                                         =    Saunders et al (1-D)
  Accuracy factor for lattice sums       =   12.000


  Time limit = Infinity


!!!!!!!!!!!!!!!!!!!!!!!!!!!!!!!!!!!!!!!!!!!!!!!!!!!!!!!!!!!!!!!!!!!!!!!!!!!!!!!!
!! WARNING : core-shell pair with no spring constant for species S    
!!!!!!!!!!!!!!!!!!!!!!!!!!!!!!!!!!!!!!!!!!!!!!!!!!!!!!!!!!!!!!!!!!!!!!!!!!!!!!!!


  Maximum range for interatomic potentials =    100000.000000 Angstroms

  General interatomic potentials :

--------------------------------------------------------------------------------
Atom  Types   Potential      Parameter       Value         Units   Cutoffs(Ang)
  1     2                                                            Min /  Max 
--------------------------------------------------------------------------------
Zn   c S    s Still-Weber 2 SW2 A            1282.2277    eV        0.000  2.400
                            SW2 rho          1.0000000    Ang       
                            SW2 B            67918.309    Ang^4     
--------------------------------------------------------------------------------
S    s S    s Still-Weber 2 SW2 A           -3722.0843    eV        0.000  3.900
                            SW2 rho          1.0000000    Ang       
                            SW2 B            3036.5473    Ang^4     
--------------------------------------------------------------------------------
Zn   c Zn   c Still-Weber 2 SW2 A            478.34535    eV        0.000  3.900
                            SW2 rho          1.0000000    Ang       
                            SW2 B           -2096.6931    Ang^4     
--------------------------------------------------------------------------------

  General Three-body potentials :

--------------------------------------------------------------------------------
  Atoms       Potential      Parameter       Value         Units   Cutoffs(Ang)
  1 / 2 / 3                                                          Min /  Max 
--------------------------------------------------------------------------------
Zn    core    StillingerWeb Three-body cnst -2587.4309    eV        0.000  2.400
S     shel                  Three-body angl  109.47000    degrees   0.000  0.000
S     shel                  Three-body rho1  2849.1216    Ang       0.000  0.000
                            Three-body rho2  2849.1216    Ang       
--------------------------------------------------------------------------------

********************************************************************************
*  Output for configuration   1                                                *
********************************************************************************


  Components of energy : 

--------------------------------------------------------------------------------
  Interatomic potentials     =           0.00003381 eV    
  Three-body potentials      =           0.00000000 eV    
  Monopole - monopole (real) =          -5.43835808 eV    
  Monopole - monopole (recip)=         -34.53920770 eV    
  Monopole - monopole (total)=         -39.97756578 eV    
--------------------------------------------------------------------------------
  Total lattice energy       =         -39.97753197 eV    
--------------------------------------------------------------------------------
  Total lattice energy       =           -3857.2207 kJ/(mole unit cells)
--------------------------------------------------------------------------------

  Born effective charge tensors : 

-------------------------------------------------------------------------------
  Atom             x           y             z
-------------------------------------------------------------------------------
    1 Zn    x     -21.0214      0.0000      0.0000
            y       0.0000    -21.0214      0.0000
            z       0.0000      0.0000    -21.0214
-------------------------------------------------------------------------------
    2 S     x      21.0214     -0.0000     -0.0000
            y      -0.0000     21.0214     -0.0000
            z      -0.0000     -0.0000     21.0214
-------------------------------------------------------------------------------




  Elastic Constant Matrix: (Units=GPa)

-------------------------------------------------------------------------------
  Indices      1         2         3         4         5         6    
-------------------------------------------------------------------------------
       1     96.7397  -82.9284 -126.1076   61.0647   -0.0000   -0.0000
       2    -82.9284   96.7397 -126.1076  -61.0647   -0.0000   -0.0000
       3   -126.1076 -126.1076  139.9189   -0.0000   -0.0000   -0.0000
       4     61.0647  -61.0647   -0.0000   46.6548   -0.0000   -0.0000
       5     -0.0000   -0.0000   -0.0000   -0.0000   46.6548   61.0647
       6     -0.0000   -0.0000   -0.0000   -0.0000   61.0647   89.8340
-------------------------------------------------------------------------------

  Elastic Constant Tensor Eigenvalues: (Units=GPa)

-------------------------------------------------------------------------------
     1 =  -112.2963     2 =     3.4755     3 =     4.1618
     4 =   133.0133     5 =   222.1611     6 =   266.0266
-------------------------------------------------------------------------------
  No. of non-positive eigenvalues = 1 => system is elastically unstable
-------------------------------------------------------------------------------


  Elastic Compliance Matrix: (Units=1/GPa)

-------------------------------------------------------------------------------
  Indices      1         2         3         4         5         6    
-------------------------------------------------------------------------------
       1    0.022888 -0.027572 -0.004221 -0.066046 -0.000000 -0.000000
       2   -0.027572  0.022888 -0.004221  0.066046 -0.000000  0.000000
       3   -0.004221 -0.004221 -0.000462  0.000000  0.000000 -0.000000
       4   -0.066046  0.066046  0.000000  0.194324  0.000000  0.000000
       5   -0.000000 -0.000000  0.000000  0.000000  0.194324 -0.132092
       6   -0.000000  0.000000 -0.000000  0.000000 -0.132092  0.100921
-------------------------------------------------------------------------------

  Mechanical properties :

-------------------------------------------------------------------------------
  Convention :                    Reuss         Voigt         Hill
-------------------------------------------------------------------------------
  Bulk  Modulus (GPa)     =     -37.43212     -37.43212     -37.43212
  Shear Modulus (GPa)     =       8.36109      81.19817      44.77963
-------------------------------------------------------------------------------
  Velocity S-wave (km/s)  =       1.44611       4.50653       3.34664
  Velocity P-wave (km/s)  =       2.56398       4.20905       2.36031
-------------------------------------------------------------------------------
  Compressibility (1/GPa) =   -0.02671503
-------------------------------------------------------------------------------
  Stress axis :                     x             y             z
-------------------------------------------------------------------------------
  Youngs Moduli (GPa)     =      43.69019      43.69019   -2163.00046
-------------------------------------------------------------------------------
  Poissons Ratio (x)      =                     1.20463      -9.13077
  Poissons Ratio (y)      =       1.20463                    -9.13077
  Poissons Ratio (z)      =       0.18443       0.18443
-------------------------------------------------------------------------------


  Piezoelectric Strain Matrix: (Units=C/m**2)

-------------------------------------------------------------------------------
  Indices      1         2         3         4         5         6    
-------------------------------------------------------------------------------
       x    -0.00000   0.00000   0.00000   0.00000  18.79096  26.57443
       y    26.57443 -26.57443   0.00000  18.79096   0.00000   0.00000
       z    18.79096  18.79096 -37.58192   0.00000   0.00000   0.00000
-------------------------------------------------------------------------------


  Piezoelectric Stress Matrix: (Units=10**-11 C/N)

-------------------------------------------------------------------------------
  Indices      1         2         3         4         5         6    
-------------------------------------------------------------------------------
       x    -0.00000   0.00000  -0.00000   0.00001  14.12713  19.97878
       y     9.98939  -9.98940  -0.00000  14.12712   0.00001  -0.00001
       z     7.06357   7.06356 -14.12713  -0.00001  -0.00001   0.00001
-------------------------------------------------------------------------------


  Static dielectric constant tensor : 

-------------------------------------------------------------------------------
              x         y         z
-------------------------------------------------------------------------------
       x    -2.00000  -0.00000  -0.00000
       y    -0.00000  -2.00000  -0.00000
       z    -0.00000  -0.00000  -2.00000
--------------------------------------------------------------------------------

  High frequency dielectric constant tensor : 

-------------------------------------------------------------------------------
              x         y         z
-------------------------------------------------------------------------------
       x    44.47334  -0.00002  -0.00001
       y    -0.00002  44.47336  -0.00001
       z    -0.00001  -0.00001  44.47336
-------------------------------------------------------------------------------

  Static refractive indices : 

-------------------------------------------------------------------------------
    1 =   -1.41421      2 =   -1.41421      3 =   -1.41421
-------------------------------------------------------------------------------

  High frequency refractive indices : 

-------------------------------------------------------------------------------
    1 =    6.66883      2 =    6.66884      3 =    6.66884
-------------------------------------------------------------------------------


  Phonon Calculation : 

  Number of k points for this configuration =       62

--------------------------------------------------------------------------------
  K point      1 =   0.000000  0.000000  0.000000  Weight =    0.016
--------------------------------------------------------------------------------

  Frequencies (cm-1) [NB: Negative implies an imaginary mode]:

 -732.94 -732.94 -732.94   -0.00    0.00    0.00


--------------------------------------------------------------------------------
  K point      2 =   0.025000  0.000000  0.025000  Weight =    0.016
--------------------------------------------------------------------------------

  Frequencies (cm-1) [NB: Negative implies an imaginary mode]:

 -744.80 -744.80  -14.14   17.61   17.61  155.41


--------------------------------------------------------------------------------
  K point      3 =   0.050000  0.000000  0.050000  Weight =    0.016
--------------------------------------------------------------------------------

  Frequencies (cm-1) [NB: Negative implies an imaginary mode]:

 -784.11 -784.11  -28.21   34.96   34.96  155.35


--------------------------------------------------------------------------------
  K point      4 =   0.075000  0.000000  0.075000  Weight =    0.016
--------------------------------------------------------------------------------

  Frequencies (cm-1) [NB: Negative implies an imaginary mode]:

 -866.00 -865.99  -42.12   51.82   51.82  155.31


--------------------------------------------------------------------------------
  K point      5 =   0.100000  0.000000  0.100000  Weight =    0.016
--------------------------------------------------------------------------------

  Frequencies (cm-1) [NB: Negative implies an imaginary mode]:

-1040.33-1040.33  -55.80   67.94   67.94  155.34


--------------------------------------------------------------------------------
  K point      6 =   0.125000  0.000000  0.125000  Weight =    0.016
--------------------------------------------------------------------------------

  Frequencies (cm-1) [NB: Negative implies an imaginary mode]:

-1585.26-1585.26  -69.17   83.07   83.07  155.56


--------------------------------------------------------------------------------
  K point      7 =   0.150000  0.000000  0.150000  Weight =    0.016
--------------------------------------------------------------------------------

  Frequencies (cm-1) [NB: Negative implies an imaginary mode]:

  -82.16   96.95   96.95  156.08 2018.38 2018.39


--------------------------------------------------------------------------------
  K point      8 =   0.175000  0.000000  0.175000  Weight =    0.016
--------------------------------------------------------------------------------

  Frequencies (cm-1) [NB: Negative implies an imaginary mode]:

  -94.68  109.30  109.30  157.10  996.71  996.71


--------------------------------------------------------------------------------
  K point      9 =   0.200000  0.000000  0.200000  Weight =    0.016
--------------------------------------------------------------------------------

  Frequencies (cm-1) [NB: Negative implies an imaginary mode]:

 -106.64  119.74  119.74  158.82  728.73  728.73


--------------------------------------------------------------------------------
  K point     10 =   0.225000  0.000000  0.225000  Weight =    0.016
--------------------------------------------------------------------------------

  Frequencies (cm-1) [NB: Negative implies an imaginary mode]:

 -117.98  127.86  127.86  161.51  590.83  590.83


--------------------------------------------------------------------------------
  K point     11 =   0.250000  0.000000  0.250000  Weight =    0.016
--------------------------------------------------------------------------------

  Frequencies (cm-1) [NB: Negative implies an imaginary mode]:

 -128.61  133.13  133.13  165.50  504.69  504.69


--------------------------------------------------------------------------------
  K point     12 =   0.275000  0.000000  0.275000  Weight =    0.016
--------------------------------------------------------------------------------

  Frequencies (cm-1) [NB: Negative implies an imaginary mode]:

 -138.45  134.97  134.97  171.16  446.40  446.40


--------------------------------------------------------------------------------
  K point     13 =   0.300000  0.000000  0.300000  Weight =    0.016
--------------------------------------------------------------------------------

  Frequencies (cm-1) [NB: Negative implies an imaginary mode]:

 -147.44  132.91  132.91  178.88  405.95  405.95


--------------------------------------------------------------------------------
  K point     14 =   0.325000  0.000000  0.325000  Weight =    0.016
--------------------------------------------------------------------------------

  Frequencies (cm-1) [NB: Negative implies an imaginary mode]:

 -155.51  126.78  126.78  189.09  378.20  378.20


--------------------------------------------------------------------------------
  K point     15 =   0.350000  0.000000  0.350000  Weight =    0.016
--------------------------------------------------------------------------------

  Frequencies (cm-1) [NB: Negative implies an imaginary mode]:

 -162.59  116.92  116.92  202.14  359.80  359.80


--------------------------------------------------------------------------------
  K point     16 =   0.375000  0.000000  0.375000  Weight =    0.016
--------------------------------------------------------------------------------

  Frequencies (cm-1) [NB: Negative implies an imaginary mode]:

 -168.64  104.15  104.15  218.19  348.16  348.16


--------------------------------------------------------------------------------
  K point     17 =   0.400000  0.000000  0.400000  Weight =    0.016
--------------------------------------------------------------------------------

  Frequencies (cm-1) [NB: Negative implies an imaginary mode]:

 -173.62   89.60   89.60  236.96  341.16  341.16


--------------------------------------------------------------------------------
  K point     18 =   0.425000  0.000000  0.425000  Weight =    0.016
--------------------------------------------------------------------------------

  Frequencies (cm-1) [NB: Negative implies an imaginary mode]:

 -177.50   74.51   74.51  257.30  337.18  337.18


--------------------------------------------------------------------------------
  K point     19 =   0.450000  0.000000  0.450000  Weight =    0.016
--------------------------------------------------------------------------------

  Frequencies (cm-1) [NB: Negative implies an imaginary mode]:

 -180.27   60.45   60.46  276.68  335.06  335.06


--------------------------------------------------------------------------------
  K point     20 =   0.475000  0.000000  0.475000  Weight =    0.016
--------------------------------------------------------------------------------

  Frequencies (cm-1) [NB: Negative implies an imaginary mode]:

 -181.93   49.71   49.71  291.17  334.06  334.06


--------------------------------------------------------------------------------
  K point     21 =   0.500000  0.000000  0.500000  Weight =    0.016
--------------------------------------------------------------------------------

  Frequencies (cm-1) [NB: Negative implies an imaginary mode]:

 -182.49   45.49   45.49  296.61  333.77  333.77


--------------------------------------------------------------------------------
  K point     22 =   0.525000  0.050000  0.525000  Weight =    0.016
--------------------------------------------------------------------------------

  Frequencies (cm-1) [NB: Negative implies an imaginary mode]:

 -181.56   43.75   47.74  292.50  331.50  344.69


--------------------------------------------------------------------------------
  K point     23 =   0.550000  0.100000  0.550000  Weight =    0.016
--------------------------------------------------------------------------------

  Frequencies (cm-1) [NB: Negative implies an imaginary mode]:

 -178.80   37.61   53.82  283.72  325.03  378.43


--------------------------------------------------------------------------------
  K point     24 =   0.575000  0.150000  0.575000  Weight =    0.016
--------------------------------------------------------------------------------

  Frequencies (cm-1) [NB: Negative implies an imaginary mode]:

 -174.30   21.67   62.32  272.31  315.33  454.48


--------------------------------------------------------------------------------
  K point     25 =   0.600000  0.200000  0.600000  Weight =    0.016
--------------------------------------------------------------------------------

  Frequencies (cm-1) [NB: Negative implies an imaginary mode]:

 -168.50  -33.35   71.81  257.66  303.93  692.11


--------------------------------------------------------------------------------
  K point     26 =   0.625000  0.250000  0.625000  Weight =    0.016
--------------------------------------------------------------------------------

  Frequencies (cm-1) [NB: Negative implies an imaginary mode]:

-1024.54 -163.28  -60.57   81.00  237.96  292.83


--------------------------------------------------------------------------------
  K point     27 =   0.650000  0.300000  0.650000  Weight =    0.016
--------------------------------------------------------------------------------

  Frequencies (cm-1) [NB: Negative implies an imaginary mode]:

 -551.40 -167.18  -84.95   88.50  210.51  284.48


--------------------------------------------------------------------------------
  K point     28 =   0.675000  0.350000  0.675000  Weight =    0.016
--------------------------------------------------------------------------------

  Frequencies (cm-1) [NB: Negative implies an imaginary mode]:

 -628.27 -193.34  -93.37   92.84  178.46  281.64


--------------------------------------------------------------------------------
  K point     29 =   0.700000  0.400000  0.700000  Weight =    0.016
--------------------------------------------------------------------------------

  Frequencies (cm-1) [NB: Negative implies an imaginary mode]:

 -205.91  -83.57   92.84  158.62  286.93  949.40


--------------------------------------------------------------------------------
  K point     30 =   0.725000  0.450000  0.725000  Weight =    0.016
--------------------------------------------------------------------------------

  Frequencies (cm-1) [NB: Negative implies an imaginary mode]:

 -199.30  -65.53   88.36  155.79  302.29  531.63


--------------------------------------------------------------------------------
  K point     31 =   0.750000  0.500000  0.750000  Weight =    0.016
--------------------------------------------------------------------------------

  Frequencies (cm-1) [NB: Negative implies an imaginary mode]:

 -188.82  -40.63   80.35  162.57  329.16  472.88


--------------------------------------------------------------------------------
  K point     32 =   0.775000  0.550000  0.775000  Weight =    0.016
--------------------------------------------------------------------------------

  Frequencies (cm-1) [NB: Negative implies an imaginary mode]:

 -178.03   23.41   70.22  172.53  369.71  473.90


--------------------------------------------------------------------------------
  K point     33 =   0.800000  0.600000  0.800000  Weight =    0.016
--------------------------------------------------------------------------------

  Frequencies (cm-1) [NB: Negative implies an imaginary mode]:

 -166.98   45.88   59.26  181.36  428.98  510.95


--------------------------------------------------------------------------------
  K point     34 =   0.825000  0.650000  0.825000  Weight =    0.016
--------------------------------------------------------------------------------

  Frequencies (cm-1) [NB: Negative implies an imaginary mode]:

 -155.10   48.38   54.56  186.74  518.91  589.41


--------------------------------------------------------------------------------
  K point     35 =   0.850000  0.700000  0.850000  Weight =    0.016
--------------------------------------------------------------------------------

  Frequencies (cm-1) [NB: Negative implies an imaginary mode]:

 -141.80   38.17   56.74  188.08  672.23  741.40


--------------------------------------------------------------------------------
  K point     36 =   0.875000  0.750000  0.875000  Weight =    0.016
--------------------------------------------------------------------------------

  Frequencies (cm-1) [NB: Negative implies an imaginary mode]:

 -126.54   28.99   54.31  185.79 1025.70 1118.64


--------------------------------------------------------------------------------
  K point     37 =   0.900000  0.800000  0.900000  Weight =    0.016
--------------------------------------------------------------------------------

  Frequencies (cm-1) [NB: Negative implies an imaginary mode]:

-3724.80-3119.27 -108.73   21.02   48.20  180.61


--------------------------------------------------------------------------------
  K point     38 =   0.925000  0.850000  0.925000  Weight =    0.016
--------------------------------------------------------------------------------

  Frequencies (cm-1) [NB: Negative implies an imaginary mode]:

-1087.91-1078.58  -87.70   14.31   39.06  173.39


--------------------------------------------------------------------------------
  K point     39 =   0.950000  0.900000  0.950000  Weight =    0.016
--------------------------------------------------------------------------------

  Frequencies (cm-1) [NB: Negative implies an imaginary mode]:

 -845.22 -839.87  -62.70    8.76   27.50  165.31


--------------------------------------------------------------------------------
  K point     40 =   0.975000  0.950000  0.975000  Weight =    0.016
--------------------------------------------------------------------------------

  Frequencies (cm-1) [NB: Negative implies an imaginary mode]:

 -757.14 -755.77  -33.16    4.12   14.20  158.34


--------------------------------------------------------------------------------
  K point     41 =   0.000000  0.000000  0.000000  Weight =    0.016
--------------------------------------------------------------------------------

  Frequencies (cm-1) [NB: Negative implies an imaginary mode]:

 -732.94 -732.94 -732.94   -0.00    0.00    0.00


--------------------------------------------------------------------------------
  K point     42 =   0.975000  0.975000  0.975000  Weight =    0.016
--------------------------------------------------------------------------------

  Frequencies (cm-1) [NB: Negative implies an imaginary mode]:

 -741.43 -741.43  -26.77    9.03    9.03  156.93


--------------------------------------------------------------------------------
  K point     43 =   0.950000  0.950000  0.950000  Weight =    0.016
--------------------------------------------------------------------------------

  Frequencies (cm-1) [NB: Negative implies an imaginary mode]:

 -768.76 -768.76  -51.86   17.93   17.93  160.79


--------------------------------------------------------------------------------
  K point     44 =   0.925000  0.925000  0.925000  Weight =    0.016
--------------------------------------------------------------------------------

  Frequencies (cm-1) [NB: Negative implies an imaginary mode]:

 -821.88 -821.88  -74.52   26.56   26.56  165.76


--------------------------------------------------------------------------------
  K point     45 =   0.900000  0.900000  0.900000  Weight =    0.016
--------------------------------------------------------------------------------

  Frequencies (cm-1) [NB: Negative implies an imaginary mode]:

 -918.88 -918.88  -94.72   34.80   34.80  170.77


--------------------------------------------------------------------------------
  K point     46 =   0.875000  0.875000  0.875000  Weight =    0.016
--------------------------------------------------------------------------------

  Frequencies (cm-1) [NB: Negative implies an imaginary mode]:

-1115.25-1115.25 -112.71   42.53   42.53  175.16


--------------------------------------------------------------------------------
  K point     47 =   0.850000  0.850000  0.850000  Weight =    0.016
--------------------------------------------------------------------------------

  Frequencies (cm-1) [NB: Negative implies an imaginary mode]:

-1716.27-1716.27 -128.77   49.64   49.64  178.50


--------------------------------------------------------------------------------
  K point     48 =   0.825000  0.825000  0.825000  Weight =    0.016
--------------------------------------------------------------------------------

  Frequencies (cm-1) [NB: Negative implies an imaginary mode]:

 -143.09   56.03   56.03  180.50 2188.76 2188.76


--------------------------------------------------------------------------------
  K point     49 =   0.800000  0.800000  0.800000  Weight =    0.016
--------------------------------------------------------------------------------

  Frequencies (cm-1) [NB: Negative implies an imaginary mode]:

 -155.80   61.60   61.60  180.94 1091.43 1091.43


--------------------------------------------------------------------------------
  K point     50 =   0.775000  0.775000  0.775000  Weight =    0.016
--------------------------------------------------------------------------------

  Frequencies (cm-1) [NB: Negative implies an imaginary mode]:

 -167.00   66.28   66.28  179.57  803.25  803.25


--------------------------------------------------------------------------------
  K point     51 =   0.750000  0.750000  0.750000  Weight =    0.016
--------------------------------------------------------------------------------

  Frequencies (cm-1) [NB: Negative implies an imaginary mode]:

 -176.71   69.99   69.99  176.12  654.54  654.54


--------------------------------------------------------------------------------
  K point     52 =   0.725000  0.725000  0.725000  Weight =    0.016
--------------------------------------------------------------------------------

  Frequencies (cm-1) [NB: Negative implies an imaginary mode]:

 -184.92   72.68   72.68  170.23  560.59  560.59


--------------------------------------------------------------------------------
  K point     53 =   0.700000  0.700000  0.700000  Weight =    0.016
--------------------------------------------------------------------------------

  Frequencies (cm-1) [NB: Negative implies an imaginary mode]:

 -191.58   74.33   74.33  161.45  495.24  495.24


--------------------------------------------------------------------------------
  K point     54 =   0.675000  0.675000  0.675000  Weight =    0.016
--------------------------------------------------------------------------------

  Frequencies (cm-1) [NB: Negative implies an imaginary mode]:

 -196.60   74.94   74.94  149.15  447.40  447.40


--------------------------------------------------------------------------------
  K point     55 =   0.650000  0.650000  0.650000  Weight =    0.016
--------------------------------------------------------------------------------

  Frequencies (cm-1) [NB: Negative implies an imaginary mode]:

 -199.84   74.60   74.60  132.39  411.48  411.48


--------------------------------------------------------------------------------
  K point     56 =   0.625000  0.625000  0.625000  Weight =    0.016
--------------------------------------------------------------------------------

  Frequencies (cm-1) [NB: Negative implies an imaginary mode]:

 -201.14   73.46   73.46  109.50  384.32  384.32


--------------------------------------------------------------------------------
  K point     57 =   0.600000  0.600000  0.600000  Weight =    0.016
--------------------------------------------------------------------------------

  Frequencies (cm-1) [NB: Negative implies an imaginary mode]:

 -200.32   71.76   71.76   76.30  363.99  363.99


--------------------------------------------------------------------------------
  K point     58 =   0.575000  0.575000  0.575000  Weight =    0.016
--------------------------------------------------------------------------------

  Frequencies (cm-1) [NB: Negative implies an imaginary mode]:

 -197.27  -25.22   69.84   69.84  349.25  349.25


--------------------------------------------------------------------------------
  K point     59 =   0.550000  0.550000  0.550000  Weight =    0.016
--------------------------------------------------------------------------------

  Frequencies (cm-1) [NB: Negative implies an imaginary mode]:

 -192.21  -82.60   68.07   68.07  339.25  339.25


--------------------------------------------------------------------------------
  K point     60 =   0.525000  0.525000  0.525000  Weight =    0.016
--------------------------------------------------------------------------------

  Frequencies (cm-1) [NB: Negative implies an imaginary mode]:

 -186.43 -108.47   66.82   66.82  333.46  333.46


--------------------------------------------------------------------------------
  K point     61 =   0.500000  0.500000  0.500000  Weight =    0.016
--------------------------------------------------------------------------------

  Frequencies (cm-1) [NB: Negative implies an imaginary mode]:

 -183.48 -117.53   66.37   66.37  331.56  331.56


--------------------------------------------------------------------------------
  K point     62 =   0.500000  0.500000  0.500000  Weight =    0.008
--------------------------------------------------------------------------------

  Frequencies (cm-1) [NB: Negative implies an imaginary mode]:

 -183.48 -117.53   66.37   66.37  331.56  331.56


--------------------------------------------------------------------------------
  Phonon properties (per mole of unit cells): Temperature =      0.000 K
--------------------------------------------------------------------------------
  Zero point energy            =        0.066269 eV
--------------------------------------------------------------------------------

  Phonon density of states : 

--------------------------------------------------------------------------------
 Frequency (cm-1) Density of States                                             
--------------------------------------------------------------------------------
    0.00000 |****************************                                  0.082
   34.19932 |************************************************************  0.175
   68.39864 |********************************************                  0.128
  102.59796 |**************************                                    0.078
  136.79729 |*****************************                                 0.086
  170.99661 |************************                                      0.070
  205.19593 |*****                                                         0.016
  239.39525 |****                                                          0.012
  273.59457 |**************                                                0.043
  307.79389 |****************************                                  0.082
  341.99321 |*************                                                 0.039
  376.19254 |*********                                                     0.027
  410.39186 |****                                                          0.012
  444.59118 |*********                                                     0.027
  478.79050 |******                                                        0.019
  512.98982 |**                                                            0.008
  547.18914 |**                                                            0.008
  581.38846 |****                                                          0.012
  615.58779 |                                                              0.000
  649.78711 |****                                                          0.012
  683.98643 |*                                                             0.004
  718.18575 |****                                                          0.012
  752.38507 |                                                              0.000
  786.58439 |**                                                            0.008
  820.78371 |                                                              0.000
  854.98304 |                                                              0.000
  889.18236 |                                                              0.000
  923.38168 |*                                                             0.004
  957.58100 |                                                              0.000
  991.78032 |****                                                          0.012
 1025.97964 |                                                              0.000
 1060.17896 |**                                                            0.008
 1094.37829 |*                                                             0.004
 1128.57761 |                                                              0.000
 1162.77693 |                                                              0.000
 1196.97625 |                                                              0.000
 1231.17557 |                                                              0.000
 1265.37489 |                                                              0.000
 1299.57421 |                                                              0.000
 1333.77354 |                                                              0.000
 1367.97286 |                                                              0.000
 1402.17218 |                                                              0.000
 1436.37150 |                                                              0.000
 1470.57082 |                                                              0.000
 1504.77014 |                                                              0.000
 1538.96946 |                                                              0.000
 1573.16879 |                                                              0.000
 1607.36811 |                                                              0.000
 1641.56743 |                                                              0.000
 1675.76675 |                                                              0.000
 1709.96607 |                                                              0.000
 1744.16539 |                                                              0.000
 1778.36471 |                                                              0.000
 1812.56404 |                                                              0.000
 1846.76336 |                                                              0.000
 1880.96268 |                                                              0.000
 1915.16200 |                                                              0.000
 1949.36132 |                                                              0.000
 1983.56064 |                                                              0.000
 2017.75996 |**                                                            0.008
 2051.95929 |                                                              0.000
 2086.15861 |                                                              0.000
 2120.35793 |                                                              0.000
 2154.55725 |**                                                            0.008
--------------------------------------------------------------------------------




  Phonon density of states written on channel 17



  XYZ File written as gulp.xyz


  Time to end of properties =       0.0400 seconds


  Peak dynamic memory used =       0.54 MB 


  Timing analysis for GULP :

--------------------------------------------------------------------------------
  Task / Subroutine                                          Time (Seconds)
--------------------------------------------------------------------------------
  Calculation of reciprocal space energy and derivatives          0.0040
  Calculation of real space energy and derivatives                0.0240
  Calculation of phonons                                          0.0360
--------------------------------------------------------------------------------
  Total CPU time                                                  0.0400
--------------------------------------------------------------------------------



  **** GULP has completed with 1 warning - beware! ****

  Job Finished at 15:30.50 11th June       2019                               

