********************************************************************************
*                       GENERAL UTILITY LATTICE PROGRAM                        *
*                                 Julian Gale                                  *
*                       Curtin Institute for Computation                       *
*                           Department of Chemistry                            *
*                    Curtin University, Western Australia                      *
********************************************************************************
* Version = 5.1.1 * Last modified =  11th April 2019                           *
********************************************************************************
*  single       - perform a single point run                                   *
*  phonon       - calculate phonons for final geometry                         *
*  nofrequency  - suppress frequency output after phonon calculation           *
********************************************************************************

  Job Started  at 14:19.39 22nd May        2019                               

  Number of CPUs =     1


  Total number of configurations input =      1

********************************************************************************
*  Input for Configuration =   1                                               *
********************************************************************************

  Formula = MgBe                                                        

  Number of irreducible atoms/shells =       2


  Total number atoms/shells =       2

  Dimensionality = 3               :  Bulk   



  Cartesian lattice vectors (Angstroms) :

        2.000000    0.000000    0.000000
        0.000000   50.000000    0.000000
        0.000000    0.000000   50.000000

  Cell parameters (Angstroms/Degrees):

  a =       2.0000    alpha =  90.0000
  b =      50.0000    beta  =  90.0000
  c =      50.0000    gamma =  90.0000

  Initial cell volume =        5000.000000 Angs**3

  Shrinking factors =     10     1     1

  Temperature of configuration =  0.000     K 

  Pressure of configuration =         0.000 GPa 

  Fractional coordinates of asymmetric unit :

--------------------------------------------------------------------------------
   No.  Atomic       x           y          z         Charge      Occupancy
        Label      (Frac)      (Frac)     (Frac)        (e)         (Frac)  
--------------------------------------------------------------------------------
      1 Mg    c    0.000000    0.000000    0.000000     0.00000    1.000000    
      2 Be    c    0.500000    0.000000    0.000000     0.00000    1.000000    
--------------------------------------------------------------------------------


  Brillouin zone sampling points :

--------------------------------------------------------------------------------
  Point number          x          y          z            Weight
--------------------------------------------------------------------------------
        1           0.000000   0.000000   0.000000     0.00952381
        2           0.005051   0.000000   0.000000     0.00952381
        3           0.010101   0.000000   0.000000     0.00952381
        4           0.015152   0.000000   0.000000     0.00952381
        5           0.020202   0.000000   0.000000     0.00952381
        6           0.025253   0.000000   0.000000     0.00952381
        7           0.030303   0.000000   0.000000     0.00952381
        8           0.035354   0.000000   0.000000     0.00952381
        9           0.040404   0.000000   0.000000     0.00952381
       10           0.045455   0.000000   0.000000     0.00952381
       11           0.050505   0.000000   0.000000     0.00952381
       12           0.055556   0.000000   0.000000     0.00952381
       13           0.060606   0.000000   0.000000     0.00952381
       14           0.065657   0.000000   0.000000     0.00952381
       15           0.070707   0.000000   0.000000     0.00952381
       16           0.075758   0.000000   0.000000     0.00952381
       17           0.080808   0.000000   0.000000     0.00952381
       18           0.085859   0.000000   0.000000     0.00952381
       19           0.090909   0.000000   0.000000     0.00952381
       20           0.095960   0.000000   0.000000     0.00952381
       21           0.101010   0.000000   0.000000     0.00952381
       22           0.106061   0.000000   0.000000     0.00952381
       23           0.111111   0.000000   0.000000     0.00952381
       24           0.116162   0.000000   0.000000     0.00952381
       25           0.121212   0.000000   0.000000     0.00952381
       26           0.126263   0.000000   0.000000     0.00952381
       27           0.131313   0.000000   0.000000     0.00952381
       28           0.136364   0.000000   0.000000     0.00952381
       29           0.141414   0.000000   0.000000     0.00952381
       30           0.146465   0.000000   0.000000     0.00952381
       31           0.151515   0.000000   0.000000     0.00952381
       32           0.156566   0.000000   0.000000     0.00952381
       33           0.161616   0.000000   0.000000     0.00952381
       34           0.166667   0.000000   0.000000     0.00952381
       35           0.171717   0.000000   0.000000     0.00952381
       36           0.176768   0.000000   0.000000     0.00952381
       37           0.181818   0.000000   0.000000     0.00952381
       38           0.186869   0.000000   0.000000     0.00952381
       39           0.191919   0.000000   0.000000     0.00952381
       40           0.196970   0.000000   0.000000     0.00952381
       41           0.202020   0.000000   0.000000     0.00952381
       42           0.207071   0.000000   0.000000     0.00952381
       43           0.212121   0.000000   0.000000     0.00952381
       44           0.217172   0.000000   0.000000     0.00952381
       45           0.222222   0.000000   0.000000     0.00952381
       46           0.227273   0.000000   0.000000     0.00952381
       47           0.232323   0.000000   0.000000     0.00952381
       48           0.237374   0.000000   0.000000     0.00952381
       49           0.242424   0.000000   0.000000     0.00952381
       50           0.247475   0.000000   0.000000     0.00952381
       51           0.252525   0.000000   0.000000     0.00952381
       52           0.257576   0.000000   0.000000     0.00952381
       53           0.262626   0.000000   0.000000     0.00952381
       54           0.267677   0.000000   0.000000     0.00952381
       55           0.272727   0.000000   0.000000     0.00952381
       56           0.277778   0.000000   0.000000     0.00952381
       57           0.282828   0.000000   0.000000     0.00952381
       58           0.287879   0.000000   0.000000     0.00952381
       59           0.292929   0.000000   0.000000     0.00952381
       60           0.297980   0.000000   0.000000     0.00952381
       61           0.303030   0.000000   0.000000     0.00952381
       62           0.308081   0.000000   0.000000     0.00952381
       63           0.313131   0.000000   0.000000     0.00952381
       64           0.318182   0.000000   0.000000     0.00952381
       65           0.323232   0.000000   0.000000     0.00952381
       66           0.328283   0.000000   0.000000     0.00952381
       67           0.333333   0.000000   0.000000     0.00952381
       68           0.338384   0.000000   0.000000     0.00952381
       69           0.343434   0.000000   0.000000     0.00952381
       70           0.348485   0.000000   0.000000     0.00952381
       71           0.353535   0.000000   0.000000     0.00952381
       72           0.358586   0.000000   0.000000     0.00952381
       73           0.363636   0.000000   0.000000     0.00952381
       74           0.368687   0.000000   0.000000     0.00952381
       75           0.373737   0.000000   0.000000     0.00952381
       76           0.378788   0.000000   0.000000     0.00952381
       77           0.383838   0.000000   0.000000     0.00952381
       78           0.388889   0.000000   0.000000     0.00952381
       79           0.393939   0.000000   0.000000     0.00952381
       80           0.398990   0.000000   0.000000     0.00952381
       81           0.404040   0.000000   0.000000     0.00952381
       82           0.409091   0.000000   0.000000     0.00952381
       83           0.414141   0.000000   0.000000     0.00952381
       84           0.419192   0.000000   0.000000     0.00952381
       85           0.424242   0.000000   0.000000     0.00952381
       86           0.429293   0.000000   0.000000     0.00952381
       87           0.434343   0.000000   0.000000     0.00952381
       88           0.439394   0.000000   0.000000     0.00952381
       89           0.444444   0.000000   0.000000     0.00952381
       90           0.449495   0.000000   0.000000     0.00952381
       91           0.454545   0.000000   0.000000     0.00952381
       92           0.459596   0.000000   0.000000     0.00952381
       93           0.464646   0.000000   0.000000     0.00952381
       94           0.469697   0.000000   0.000000     0.00952381
       95           0.474747   0.000000   0.000000     0.00952381
       96           0.479798   0.000000   0.000000     0.00952381
       97           0.484848   0.000000   0.000000     0.00952381
       98           0.489899   0.000000   0.000000     0.00952381
       99           0.494949   0.000000   0.000000     0.00952381
      100           0.500000   0.000000   0.000000     0.00952381
      101           0.050000   0.500000   0.500000     0.00952381
      102           0.150000   0.500000   0.500000     0.00952381
      103           0.250000   0.500000   0.500000     0.00952381
      104           0.350000   0.500000   0.500000     0.00952381
      105           0.450000   0.500000   0.500000     0.00952381
--------------------------------------------------------------------------------


********************************************************************************
*  General input information                                                   *
********************************************************************************

  Species output for all configurations : 

--------------------------------------------------------------------------------
  Species    Type    Atomic    Atomic    Charge       Radii (Angs)     Library
                     Number     Mass       (e)     Cova   Ionic  VDW   Symbol
--------------------------------------------------------------------------------
    Mg       Core       12      24.31   0.000000   1.100  0.000  1.640          
    Be       Core        4       9.01   0.000000   0.350  0.000  0.520          
--------------------------------------------------------------------------------


  Lattice summation method               =    Ewald          (3-D)
                                         =    Parry          (2-D)
                                         =    Saunders et al (1-D)
  Accuracy factor for lattice sums       =   12.000


  Time limit = Infinity

  Maximum range for interatomic potentials =    100000.000000 Angstroms

  General interatomic potentials :

--------------------------------------------------------------------------------
Atom  Types   Potential      Parameter       Value         Units   Cutoffs(Ang)
  1     2                                                            Min /  Max 
--------------------------------------------------------------------------------
Be   c Mg   c Force const   Longitudinal K   1.0000000    eV*Ang^-2 0.000  1.500
                            Transverse   K  0.20000000    eV*Ang^-2 
--------------------------------------------------------------------------------

********************************************************************************
*  Output for configuration   1                                                *
********************************************************************************


  Components of energy : 

--------------------------------------------------------------------------------
  Interatomic potentials     =           0.00000000 eV    
  Monopole - monopole (real) =           0.00000000 eV    
  Monopole - monopole (recip)=           0.00000000 eV    
  Monopole - monopole (total)=           0.00000000 eV    
--------------------------------------------------------------------------------
  Total lattice energy       =           0.00000000 eV    
--------------------------------------------------------------------------------
  Total lattice energy       =               0.0000 kJ/(mole unit cells)
--------------------------------------------------------------------------------


  Elastic Constant Matrix: (Units=GPa)

-------------------------------------------------------------------------------
  Indices      1         2         3         4         5         6    
-------------------------------------------------------------------------------
       1      0.0769    0.0000    0.0000    0.0000    0.0000    0.0000
       2      0.0000    0.0000    0.0000    0.0000    0.0000    0.0000
       3      0.0000    0.0000    0.0000    0.0000    0.0000    0.0000
       4      0.0000    0.0000    0.0000    0.0000    0.0000    0.0000
       5      0.0000    0.0000    0.0000    0.0000    0.0064    0.0000
       6      0.0000    0.0000    0.0000    0.0000    0.0000    0.0064
-------------------------------------------------------------------------------

  Elastic Constant Tensor Eigenvalues: (Units=GPa)

-------------------------------------------------------------------------------
     1 =     0.0000     2 =     0.0000     3 =     0.0000
     4 =     0.0064     5 =     0.0064     6 =     0.0769
-------------------------------------------------------------------------------
  No. of non-positive eigenvalues = 3 => system is elastically unstable
-------------------------------------------------------------------------------

  Mechanical properties :

-------------------------------------------------------------------------------
  Convention :                    Reuss         Voigt         Hill
-------------------------------------------------------------------------------
  Bulk  Modulus (GPa)     =       0.07691       0.00855       0.04273
  Shear Modulus (GPa)     =       0.28818       0.00769       0.14794
-------------------------------------------------------------------------------
  Velocity S-wave (km/s)  =       5.10314       0.83365       3.65630
  Velocity P-wave (km/s)  =       6.45542       1.30338       4.65678
-------------------------------------------------------------------------------
  Compressibility (1/GPa) =   13.00302163
-------------------------------------------------------------------------------
  Stress axis :                     x             y             z
-------------------------------------------------------------------------------
  Youngs Moduli (GPa)     =       0.07691       0.00000       0.00000
-------------------------------------------------------------------------------
  Poissons Ratio (x)      =                    -0.00000      -0.00000
  Poissons Ratio (y)      =      -0.00000                    -0.00000
  Poissons Ratio (z)      =      -0.00000      -0.00000
-------------------------------------------------------------------------------


  Piezoelectric Strain Matrix: (Units=C/m**2)

-------------------------------------------------------------------------------
  Indices      1         2         3         4         5         6    
-------------------------------------------------------------------------------
       x    -0.00000  -0.00000  -0.00000  -0.00000  -0.00000  -0.00000
       y    -0.00000  -0.00000  -0.00000  -0.00000  -0.00000  -0.00000
       z    -0.00000  -0.00000  -0.00000  -0.00000  -0.00000  -0.00000
-------------------------------------------------------------------------------


  Piezoelectric Stress Matrix: (Units=10**-11 C/N)

-------------------------------------------------------------------------------
  Indices      1         2         3         4         5         6    
-------------------------------------------------------------------------------
       x     0.00000   0.00000   0.00000   0.00000   0.00000   0.00000
       y     0.00000   0.00000   0.00000   0.00000   0.00000   0.00000
       z     0.00000   0.00000   0.00000   0.00000   0.00000   0.00000
-------------------------------------------------------------------------------


  Static dielectric constant tensor : 

-------------------------------------------------------------------------------
              x         y         z
-------------------------------------------------------------------------------
       x     1.00000   0.00000   0.00000
       y     0.00000   1.00000   0.00000
       z     0.00000   0.00000   1.00000
--------------------------------------------------------------------------------

  Static refractive indices : 

-------------------------------------------------------------------------------
    1 =    1.00000      2 =    1.00000      3 =    1.00000
-------------------------------------------------------------------------------


  Phonon Calculation : 

  K direction for n-a correction at gamma =  1.00000  1.00000  1.00000

  Number of k points for this configuration =      105

--------------------------------------------------------------------------------
  Phonon properties (per mole of unit cells): Temperature =      0.000 K
--------------------------------------------------------------------------------
  Zero point energy            =        0.042076 eV
--------------------------------------------------------------------------------

  Phonon density of states : 

--------------------------------------------------------------------------------
 Frequency (cm-1) Density of States                                             
--------------------------------------------------------------------------------
    0.00000 |                                                              0.000
    4.48338 |************************                                      0.067
    8.96676 |                                                              0.000
   13.45013 |                                                              0.000
   17.93351 |************                                                  0.033
   22.41689 |************************                                      0.067
   26.90027 |                                                              0.000
   31.38365 |                                                              0.000
   35.86702 |                                                              0.000
   40.35040 |************************                                      0.067
   44.83378 |                                                              0.000
   49.31716 |                                                              0.000
   53.80054 |************************                                      0.067
   58.28391 |************                                                  0.033
   62.76729 |************************                                      0.067
   67.25067 |                                                              0.000
   71.73405 |                                                              0.000
   76.21743 |                                                              0.000
   80.70080 |                                                              0.000
   85.18418 |                                                              0.000
   89.66756 |                                                              0.000
   94.15094 |************                                                  0.033
   98.63432 |                                                              0.000
  103.11769 |                                                              0.000
  107.60107 |************************                                      0.067
  112.08445 |************************                                      0.067
  116.56783 |                                                              0.000
  121.05120 |************************                                      0.067
  125.53458 |***********************************************************   0.167
  130.01796 |                                                              0.000
  134.50134 |                                                              0.000
  138.98472 |                                                              0.000
  143.46809 |************                                                  0.033
  147.95147 |                                                              0.000
  152.43485 |                                                              0.000
  156.91823 |                                                              0.000
  161.40161 |                                                              0.000
  165.88498 |                                                              0.000
  170.36836 |                                                              0.000
  174.85174 |                                                              0.000
  179.33512 |                                                              0.000
  183.81850 |                                                              0.000
  188.30187 |                                                              0.000
  192.78525 |                                                              0.000
  197.26863 |                                                              0.000
  201.75201 |                                                              0.000
  206.23539 |                                                              0.000
  210.71876 |                                                              0.000
  215.20214 |                                                              0.000
  219.68552 |                                                              0.000
  224.16890 |                                                              0.000
  228.65228 |                                                              0.000
  233.13565 |                                                              0.000
  237.61903 |                                                              0.000
  242.10241 |                                                              0.000
  246.58579 |************                                                  0.033
  251.06917 |                                                              0.000
  255.55254 |************                                                  0.033
  260.03592 |                                                              0.000
  264.51930 |                                                              0.000
  269.00268 |************                                                  0.033
  273.48606 |                                                              0.000
  277.96943 |************                                                  0.033
  282.45281 |************                                                  0.033
--------------------------------------------------------------------------------




  Phonon density of states written as 2atomchain_1nn.dens           



  Phonon dispersion curves : 

--------------------------------------------------------------------------------
  Section number =   1
--------------------------------------------------------------------------------
  Frequency (cm-1) Phonon dispersion                                            
--------------------------------------------------------------------------------
   285.73   |**********                                                  
   273.82   |          ******************                                
   261.92   |                           ***********                      
   250.01   |                                      ************          
   238.11   |                                                 ***********
   226.20   |                                                            
   214.30   |                                                            
   202.39   |                                                            
   190.49   |                                                            
   178.58   |                                                            
   166.68   |                                                            
   154.77   |                                                            
   142.86   |                                                  **********
   130.96   |                                           *******          
   119.05   |***********************************   ******                
   107.15   |                                  **************************
    95.24   |                              ****                          
    83.34   |                         *****                              
    71.43   |                      ****                                  
    59.53   |                  ****                       ***************
    47.62   |              ****               ************               
    35.72   |          ****          **********                          
    23.81   |       ****     *********                                   
    11.91   |   **** ********                                            
     0.00   |********                                                    
--------------------------------------------------------------------------------


  Phonon dispersion written as 2atomchain_1nn.disp           

  Time to end of properties =       0.0040 seconds


  Peak dynamic memory used =       0.53 MB 


  Timing analysis for GULP :

--------------------------------------------------------------------------------
  Task / Subroutine                                          Time (Seconds)
--------------------------------------------------------------------------------
--------------------------------------------------------------------------------
  Total CPU time                                                  0.0040
--------------------------------------------------------------------------------


  Job Finished at 14:19.39 22nd May        2019                               

