********************************************************************************
*                       GENERAL UTILITY LATTICE PROGRAM                        *
*                                 Julian Gale                                  *
*                       Curtin Institute for Computation                       *
*                           Department of Chemistry                            *
*                    Curtin University, Western Australia                      *
********************************************************************************
* Version = 5.1.1 * Last modified =  11th April 2019                           *
********************************************************************************
*  single       - perform a single point run                                   *
*  phonon       - calculate phonons for final geometry                         *
*  nofrequency  - suppress frequency output after phonon calculation           *
********************************************************************************

  Job Started  at 11:04.18  4th June       2019                               

  Number of CPUs =     1


  Total number of configurations input =      1

********************************************************************************
*  Input for Configuration =   1                                               *
********************************************************************************

  Formula = C2                                                          

  Number of irreducible atoms/shells =       2


  Total number atoms/shells =       2

  Dimensionality = 3               :  Bulk   



  Cartesian lattice vectors (Angstroms) :

        2.460000    0.000000    0.000000
        1.230000    2.130422    0.000000
        0.000000    0.000000   50.000000

  Cell parameters (Angstroms/Degrees):

  a =       2.4600    alpha =  90.0000
  b =       2.4600    beta  =  90.0000
  c =      50.0000    gamma =  60.0000

  Initial cell volume =         262.041967 Angs**3

  Shrinking factors =     10     1     1

  Temperature of configuration =  0.000     K 

  Pressure of configuration =         0.000 GPa 

  Fractional coordinates of asymmetric unit :

--------------------------------------------------------------------------------
   No.  Atomic       x           y          z         Charge      Occupancy
        Label      (Frac)      (Frac)     (Frac)        (e)         (Frac)  
--------------------------------------------------------------------------------
      1 C     c    0.000000    0.000000    0.000000     0.00000    1.000000    
      2 C     c    0.333333    0.333333    0.000000     0.00000    1.000000    
--------------------------------------------------------------------------------


  Brillouin zone sampling points :

--------------------------------------------------------------------------------
  Point number          x          y          z            Weight
--------------------------------------------------------------------------------
        1           0.000000   0.000000   0.000000     0.00199203
        2           0.002242   0.002242   0.000000     0.00199203
        3           0.004484   0.004484   0.000000     0.00199203
        4           0.006726   0.006726   0.000000     0.00199203
        5           0.008969   0.008969   0.000000     0.00199203
        6           0.011211   0.011211   0.000000     0.00199203
        7           0.013453   0.013453   0.000000     0.00199203
        8           0.015695   0.015695   0.000000     0.00199203
        9           0.017937   0.017937   0.000000     0.00199203
       10           0.020179   0.020179   0.000000     0.00199203
       11           0.022422   0.022422   0.000000     0.00199203
       12           0.024664   0.024664   0.000000     0.00199203
       13           0.026906   0.026906   0.000000     0.00199203
       14           0.029148   0.029148   0.000000     0.00199203
       15           0.031390   0.031390   0.000000     0.00199203
       16           0.033632   0.033632   0.000000     0.00199203
       17           0.035874   0.035874   0.000000     0.00199203
       18           0.038117   0.038117   0.000000     0.00199203
       19           0.040359   0.040359   0.000000     0.00199203
       20           0.042601   0.042601   0.000000     0.00199203
       21           0.044843   0.044843   0.000000     0.00199203
       22           0.047085   0.047085   0.000000     0.00199203
       23           0.049327   0.049327   0.000000     0.00199203
       24           0.051570   0.051570   0.000000     0.00199203
       25           0.053812   0.053812   0.000000     0.00199203
       26           0.056054   0.056054   0.000000     0.00199203
       27           0.058296   0.058296   0.000000     0.00199203
       28           0.060538   0.060538   0.000000     0.00199203
       29           0.062780   0.062780   0.000000     0.00199203
       30           0.065022   0.065022   0.000000     0.00199203
       31           0.067265   0.067265   0.000000     0.00199203
       32           0.069507   0.069507   0.000000     0.00199203
       33           0.071749   0.071749   0.000000     0.00199203
       34           0.073991   0.073991   0.000000     0.00199203
       35           0.076233   0.076233   0.000000     0.00199203
       36           0.078475   0.078475   0.000000     0.00199203
       37           0.080717   0.080717   0.000000     0.00199203
       38           0.082960   0.082960   0.000000     0.00199203
       39           0.085202   0.085202   0.000000     0.00199203
       40           0.087444   0.087444   0.000000     0.00199203
       41           0.089686   0.089686   0.000000     0.00199203
       42           0.091928   0.091928   0.000000     0.00199203
       43           0.094170   0.094170   0.000000     0.00199203
       44           0.096413   0.096413   0.000000     0.00199203
       45           0.098655   0.098655   0.000000     0.00199203
       46           0.100897   0.100897   0.000000     0.00199203
       47           0.103139   0.103139   0.000000     0.00199203
       48           0.105381   0.105381   0.000000     0.00199203
       49           0.107623   0.107623   0.000000     0.00199203
       50           0.109865   0.109865   0.000000     0.00199203
       51           0.112108   0.112108   0.000000     0.00199203
       52           0.114350   0.114350   0.000000     0.00199203
       53           0.116592   0.116592   0.000000     0.00199203
       54           0.118834   0.118834   0.000000     0.00199203
       55           0.121076   0.121076   0.000000     0.00199203
       56           0.123318   0.123318   0.000000     0.00199203
       57           0.125561   0.125561   0.000000     0.00199203
       58           0.127803   0.127803   0.000000     0.00199203
       59           0.130045   0.130045   0.000000     0.00199203
       60           0.132287   0.132287   0.000000     0.00199203
       61           0.134529   0.134529   0.000000     0.00199203
       62           0.136771   0.136771   0.000000     0.00199203
       63           0.139013   0.139013   0.000000     0.00199203
       64           0.141256   0.141256   0.000000     0.00199203
       65           0.143498   0.143498   0.000000     0.00199203
       66           0.145740   0.145740   0.000000     0.00199203
       67           0.147982   0.147982   0.000000     0.00199203
       68           0.150224   0.150224   0.000000     0.00199203
       69           0.152466   0.152466   0.000000     0.00199203
       70           0.154709   0.154709   0.000000     0.00199203
       71           0.156951   0.156951   0.000000     0.00199203
       72           0.159193   0.159193   0.000000     0.00199203
       73           0.161435   0.161435   0.000000     0.00199203
       74           0.163677   0.163677   0.000000     0.00199203
       75           0.165919   0.165919   0.000000     0.00199203
       76           0.168161   0.168161   0.000000     0.00199203
       77           0.170404   0.170404   0.000000     0.00199203
       78           0.172646   0.172646   0.000000     0.00199203
       79           0.174888   0.174888   0.000000     0.00199203
       80           0.177130   0.177130   0.000000     0.00199203
       81           0.179372   0.179372   0.000000     0.00199203
       82           0.181614   0.181614   0.000000     0.00199203
       83           0.183857   0.183857   0.000000     0.00199203
       84           0.186099   0.186099   0.000000     0.00199203
       85           0.188341   0.188341   0.000000     0.00199203
       86           0.190583   0.190583   0.000000     0.00199203
       87           0.192825   0.192825   0.000000     0.00199203
       88           0.195067   0.195067   0.000000     0.00199203
       89           0.197309   0.197309   0.000000     0.00199203
       90           0.199552   0.199552   0.000000     0.00199203
       91           0.201794   0.201794   0.000000     0.00199203
       92           0.204036   0.204036   0.000000     0.00199203
       93           0.206278   0.206278   0.000000     0.00199203
       94           0.208520   0.208520   0.000000     0.00199203
       95           0.210762   0.210762   0.000000     0.00199203
       96           0.213004   0.213004   0.000000     0.00199203
       97           0.215247   0.215247   0.000000     0.00199203
       98           0.217489   0.217489   0.000000     0.00199203
       99           0.219731   0.219731   0.000000     0.00199203
      100           0.221973   0.221973   0.000000     0.00199203
      101           0.224215   0.224215   0.000000     0.00199203
      102           0.226457   0.226457   0.000000     0.00199203
      103           0.228700   0.228700   0.000000     0.00199203
      104           0.230942   0.230942   0.000000     0.00199203
      105           0.233184   0.233184   0.000000     0.00199203
      106           0.235426   0.235426   0.000000     0.00199203
      107           0.237668   0.237668   0.000000     0.00199203
      108           0.239910   0.239910   0.000000     0.00199203
      109           0.242152   0.242152   0.000000     0.00199203
      110           0.244395   0.244395   0.000000     0.00199203
      111           0.246637   0.246637   0.000000     0.00199203
      112           0.248879   0.248879   0.000000     0.00199203
      113           0.251121   0.251121   0.000000     0.00199203
      114           0.253363   0.253363   0.000000     0.00199203
      115           0.255605   0.255605   0.000000     0.00199203
      116           0.257848   0.257848   0.000000     0.00199203
      117           0.260090   0.260090   0.000000     0.00199203
      118           0.262332   0.262332   0.000000     0.00199203
      119           0.264574   0.264574   0.000000     0.00199203
      120           0.266816   0.266816   0.000000     0.00199203
      121           0.269058   0.269058   0.000000     0.00199203
      122           0.271300   0.271300   0.000000     0.00199203
      123           0.273543   0.273543   0.000000     0.00199203
      124           0.275785   0.275785   0.000000     0.00199203
      125           0.278027   0.278027   0.000000     0.00199203
      126           0.280269   0.280269   0.000000     0.00199203
      127           0.282511   0.282511   0.000000     0.00199203
      128           0.284753   0.284753   0.000000     0.00199203
      129           0.286996   0.286996   0.000000     0.00199203
      130           0.289238   0.289238   0.000000     0.00199203
      131           0.291480   0.291480   0.000000     0.00199203
      132           0.293722   0.293722   0.000000     0.00199203
      133           0.295964   0.295964   0.000000     0.00199203
      134           0.298206   0.298206   0.000000     0.00199203
      135           0.300448   0.300448   0.000000     0.00199203
      136           0.302691   0.302691   0.000000     0.00199203
      137           0.304933   0.304933   0.000000     0.00199203
      138           0.307175   0.307175   0.000000     0.00199203
      139           0.309417   0.309417   0.000000     0.00199203
      140           0.311659   0.311659   0.000000     0.00199203
      141           0.313901   0.313901   0.000000     0.00199203
      142           0.316143   0.316143   0.000000     0.00199203
      143           0.318386   0.318386   0.000000     0.00199203
      144           0.320628   0.320628   0.000000     0.00199203
      145           0.322870   0.322870   0.000000     0.00199203
      146           0.325112   0.325112   0.000000     0.00199203
      147           0.327354   0.327354   0.000000     0.00199203
      148           0.329596   0.329596   0.000000     0.00199203
      149           0.331839   0.331839   0.000000     0.00199203
      150           0.334081   0.334081   0.000000     0.00199203
      151           0.336323   0.336323   0.000000     0.00199203
      152           0.338565   0.338565   0.000000     0.00199203
      153           0.340807   0.340807   0.000000     0.00199203
      154           0.343049   0.343049   0.000000     0.00199203
      155           0.345291   0.345291   0.000000     0.00199203
      156           0.347534   0.347534   0.000000     0.00199203
      157           0.349776   0.349776   0.000000     0.00199203
      158           0.352018   0.352018   0.000000     0.00199203
      159           0.354260   0.354260   0.000000     0.00199203
      160           0.356502   0.356502   0.000000     0.00199203
      161           0.358744   0.358744   0.000000     0.00199203
      162           0.360987   0.360987   0.000000     0.00199203
      163           0.363229   0.363229   0.000000     0.00199203
      164           0.365471   0.365471   0.000000     0.00199203
      165           0.367713   0.367713   0.000000     0.00199203
      166           0.369955   0.369955   0.000000     0.00199203
      167           0.372197   0.372197   0.000000     0.00199203
      168           0.374439   0.374439   0.000000     0.00199203
      169           0.376682   0.376682   0.000000     0.00199203
      170           0.378924   0.378924   0.000000     0.00199203
      171           0.381166   0.381166   0.000000     0.00199203
      172           0.383408   0.383408   0.000000     0.00199203
      173           0.385650   0.385650   0.000000     0.00199203
      174           0.387892   0.387892   0.000000     0.00199203
      175           0.390135   0.390135   0.000000     0.00199203
      176           0.392377   0.392377   0.000000     0.00199203
      177           0.394619   0.394619   0.000000     0.00199203
      178           0.396861   0.396861   0.000000     0.00199203
      179           0.399103   0.399103   0.000000     0.00199203
      180           0.401345   0.401345   0.000000     0.00199203
      181           0.403587   0.403587   0.000000     0.00199203
      182           0.405830   0.405830   0.000000     0.00199203
      183           0.408072   0.408072   0.000000     0.00199203
      184           0.410314   0.410314   0.000000     0.00199203
      185           0.412556   0.412556   0.000000     0.00199203
      186           0.414798   0.414798   0.000000     0.00199203
      187           0.417040   0.417040   0.000000     0.00199203
      188           0.419283   0.419283   0.000000     0.00199203
      189           0.421525   0.421525   0.000000     0.00199203
      190           0.423767   0.423767   0.000000     0.00199203
      191           0.426009   0.426009   0.000000     0.00199203
      192           0.428251   0.428251   0.000000     0.00199203
      193           0.430493   0.430493   0.000000     0.00199203
      194           0.432735   0.432735   0.000000     0.00199203
      195           0.434978   0.434978   0.000000     0.00199203
      196           0.437220   0.437220   0.000000     0.00199203
      197           0.439462   0.439462   0.000000     0.00199203
      198           0.441704   0.441704   0.000000     0.00199203
      199           0.443946   0.443946   0.000000     0.00199203
      200           0.446188   0.446188   0.000000     0.00199203
      201           0.448430   0.448430   0.000000     0.00199203
      202           0.450673   0.450673   0.000000     0.00199203
      203           0.452915   0.452915   0.000000     0.00199203
      204           0.455157   0.455157   0.000000     0.00199203
      205           0.457399   0.457399   0.000000     0.00199203
      206           0.459641   0.459641   0.000000     0.00199203
      207           0.461883   0.461883   0.000000     0.00199203
      208           0.464126   0.464126   0.000000     0.00199203
      209           0.466368   0.466368   0.000000     0.00199203
      210           0.468610   0.468610   0.000000     0.00199203
      211           0.470852   0.470852   0.000000     0.00199203
      212           0.473094   0.473094   0.000000     0.00199203
      213           0.475336   0.475336   0.000000     0.00199203
      214           0.477578   0.477578   0.000000     0.00199203
      215           0.479821   0.479821   0.000000     0.00199203
      216           0.482063   0.482063   0.000000     0.00199203
      217           0.484305   0.484305   0.000000     0.00199203
      218           0.486547   0.486547   0.000000     0.00199203
      219           0.488789   0.488789   0.000000     0.00199203
      220           0.491031   0.491031   0.000000     0.00199203
      221           0.493274   0.493274   0.000000     0.00199203
      222           0.495516   0.495516   0.000000     0.00199203
      223           0.497758   0.497758   0.000000     0.00199203
      224           0.500000   0.500000   0.000000     0.00199203
      225           0.493056   0.506944   0.000000     0.00199203
      226           0.486111   0.513889   0.000000     0.00199203
      227           0.479167   0.520833   0.000000     0.00199203
      228           0.472222   0.527778   0.000000     0.00199203
      229           0.465278   0.534722   0.000000     0.00199203
      230           0.458333   0.541667   0.000000     0.00199203
      231           0.451389   0.548611   0.000000     0.00199203
      232           0.444444   0.555556   0.000000     0.00199203
      233           0.437500   0.562500   0.000000     0.00199203
      234           0.430555   0.569445   0.000000     0.00199203
      235           0.423611   0.576389   0.000000     0.00199203
      236           0.416667   0.583334   0.000000     0.00199203
      237           0.409722   0.590278   0.000000     0.00199203
      238           0.402778   0.597222   0.000000     0.00199203
      239           0.395833   0.604167   0.000000     0.00199203
      240           0.388889   0.611111   0.000000     0.00199203
      241           0.381944   0.618056   0.000000     0.00199203
      242           0.375000   0.625000   0.000000     0.00199203
      243           0.368055   0.631945   0.000000     0.00199203
      244           0.361111   0.638889   0.000000     0.00199203
      245           0.354166   0.645834   0.000000     0.00199203
      246           0.347222   0.652778   0.000000     0.00199203
      247           0.340277   0.659723   0.000000     0.00199203
      248           0.333333   0.666667   0.000000     0.00199203
      249           0.331994   0.663990   0.000000     0.00199203
      250           0.330656   0.661312   0.000000     0.00199203
      251           0.329317   0.658635   0.000000     0.00199203
      252           0.327978   0.655957   0.000000     0.00199203
      253           0.326640   0.653280   0.000000     0.00199203
      254           0.325301   0.650603   0.000000     0.00199203
      255           0.323962   0.647925   0.000000     0.00199203
      256           0.322624   0.645248   0.000000     0.00199203
      257           0.321285   0.642571   0.000000     0.00199203
      258           0.319946   0.639893   0.000000     0.00199203
      259           0.318607   0.637216   0.000000     0.00199203
      260           0.317269   0.634538   0.000000     0.00199203
      261           0.315930   0.631861   0.000000     0.00199203
      262           0.314591   0.629184   0.000000     0.00199203
      263           0.313253   0.626506   0.000000     0.00199203
      264           0.311914   0.623829   0.000000     0.00199203
      265           0.310575   0.621152   0.000000     0.00199203
      266           0.309237   0.618474   0.000000     0.00199203
      267           0.307898   0.615797   0.000000     0.00199203
      268           0.306559   0.613119   0.000000     0.00199203
      269           0.305221   0.610442   0.000000     0.00199203
      270           0.303882   0.607765   0.000000     0.00199203
      271           0.302543   0.605087   0.000000     0.00199203
      272           0.301205   0.602410   0.000000     0.00199203
      273           0.299866   0.599733   0.000000     0.00199203
      274           0.298527   0.597055   0.000000     0.00199203
      275           0.297188   0.594378   0.000000     0.00199203
      276           0.295850   0.591700   0.000000     0.00199203
      277           0.294511   0.589023   0.000000     0.00199203
      278           0.293172   0.586346   0.000000     0.00199203
      279           0.291834   0.583668   0.000000     0.00199203
      280           0.290495   0.580991   0.000000     0.00199203
      281           0.289156   0.578314   0.000000     0.00199203
      282           0.287818   0.575636   0.000000     0.00199203
      283           0.286479   0.572959   0.000000     0.00199203
      284           0.285140   0.570281   0.000000     0.00199203
      285           0.283802   0.567604   0.000000     0.00199203
      286           0.282463   0.564927   0.000000     0.00199203
      287           0.281124   0.562249   0.000000     0.00199203
      288           0.279786   0.559572   0.000000     0.00199203
      289           0.278447   0.556895   0.000000     0.00199203
      290           0.277108   0.554217   0.000000     0.00199203
      291           0.275769   0.551540   0.000000     0.00199203
      292           0.274431   0.548862   0.000000     0.00199203
      293           0.273092   0.546185   0.000000     0.00199203
      294           0.271753   0.543508   0.000000     0.00199203
      295           0.270415   0.540830   0.000000     0.00199203
      296           0.269076   0.538153   0.000000     0.00199203
      297           0.267737   0.535476   0.000000     0.00199203
      298           0.266399   0.532798   0.000000     0.00199203
      299           0.265060   0.530121   0.000000     0.00199203
      300           0.263721   0.527443   0.000000     0.00199203
      301           0.262383   0.524766   0.000000     0.00199203
      302           0.261044   0.522089   0.000000     0.00199203
      303           0.259705   0.519411   0.000000     0.00199203
      304           0.258367   0.516734   0.000000     0.00199203
      305           0.257028   0.514056   0.000000     0.00199203
      306           0.255689   0.511379   0.000000     0.00199203
      307           0.254350   0.508702   0.000000     0.00199203
      308           0.253012   0.506024   0.000000     0.00199203
      309           0.251673   0.503347   0.000000     0.00199203
      310           0.250334   0.500670   0.000000     0.00199203
      311           0.248996   0.497992   0.000000     0.00199203
      312           0.247657   0.495315   0.000000     0.00199203
      313           0.246318   0.492637   0.000000     0.00199203
      314           0.244980   0.489960   0.000000     0.00199203
      315           0.243641   0.487283   0.000000     0.00199203
      316           0.242302   0.484605   0.000000     0.00199203
      317           0.240964   0.481928   0.000000     0.00199203
      318           0.239625   0.479251   0.000000     0.00199203
      319           0.238286   0.476573   0.000000     0.00199203
      320           0.236948   0.473896   0.000000     0.00199203
      321           0.235609   0.471218   0.000000     0.00199203
      322           0.234270   0.468541   0.000000     0.00199203
      323           0.232931   0.465864   0.000000     0.00199203
      324           0.231593   0.463186   0.000000     0.00199203
      325           0.230254   0.460509   0.000000     0.00199203
      326           0.228915   0.457832   0.000000     0.00199203
      327           0.227577   0.455154   0.000000     0.00199203
      328           0.226238   0.452477   0.000000     0.00199203
      329           0.224899   0.449799   0.000000     0.00199203
      330           0.223561   0.447122   0.000000     0.00199203
      331           0.222222   0.444445   0.000000     0.00199203
      332           0.220883   0.441767   0.000000     0.00199203
      333           0.219545   0.439090   0.000000     0.00199203
      334           0.218206   0.436413   0.000000     0.00199203
      335           0.216867   0.433735   0.000000     0.00199203
      336           0.215529   0.431058   0.000000     0.00199203
      337           0.214190   0.428380   0.000000     0.00199203
      338           0.212851   0.425703   0.000000     0.00199203
      339           0.211513   0.423026   0.000000     0.00199203
      340           0.210174   0.420348   0.000000     0.00199203
      341           0.208835   0.417671   0.000000     0.00199203
      342           0.207496   0.414994   0.000000     0.00199203
      343           0.206158   0.412316   0.000000     0.00199203
      344           0.204819   0.409639   0.000000     0.00199203
      345           0.203480   0.406961   0.000000     0.00199203
      346           0.202142   0.404284   0.000000     0.00199203
      347           0.200803   0.401607   0.000000     0.00199203
      348           0.199464   0.398929   0.000000     0.00199203
      349           0.198126   0.396252   0.000000     0.00199203
      350           0.196787   0.393574   0.000000     0.00199203
      351           0.195448   0.390897   0.000000     0.00199203
      352           0.194110   0.388220   0.000000     0.00199203
      353           0.192771   0.385542   0.000000     0.00199203
      354           0.191432   0.382865   0.000000     0.00199203
      355           0.190094   0.380188   0.000000     0.00199203
      356           0.188755   0.377510   0.000000     0.00199203
      357           0.187416   0.374833   0.000000     0.00199203
      358           0.186077   0.372155   0.000000     0.00199203
      359           0.184739   0.369478   0.000000     0.00199203
      360           0.183400   0.366801   0.000000     0.00199203
      361           0.182061   0.364123   0.000000     0.00199203
      362           0.180723   0.361446   0.000000     0.00199203
      363           0.179384   0.358769   0.000000     0.00199203
      364           0.178045   0.356091   0.000000     0.00199203
      365           0.176707   0.353414   0.000000     0.00199203
      366           0.175368   0.350736   0.000000     0.00199203
      367           0.174029   0.348059   0.000000     0.00199203
      368           0.172691   0.345382   0.000000     0.00199203
      369           0.171352   0.342704   0.000000     0.00199203
      370           0.170013   0.340027   0.000000     0.00199203
      371           0.168675   0.337350   0.000000     0.00199203
      372           0.167336   0.334672   0.000000     0.00199203
      373           0.165997   0.331995   0.000000     0.00199203
      374           0.164658   0.329317   0.000000     0.00199203
      375           0.163320   0.326640   0.000000     0.00199203
      376           0.161981   0.323963   0.000000     0.00199203
      377           0.160642   0.321285   0.000000     0.00199203
      378           0.159304   0.318608   0.000000     0.00199203
      379           0.157965   0.315931   0.000000     0.00199203
      380           0.156626   0.313253   0.000000     0.00199203
      381           0.155288   0.310576   0.000000     0.00199203
      382           0.153949   0.307898   0.000000     0.00199203
      383           0.152610   0.305221   0.000000     0.00199203
      384           0.151272   0.302544   0.000000     0.00199203
      385           0.149933   0.299866   0.000000     0.00199203
      386           0.148594   0.297189   0.000000     0.00199203
      387           0.147256   0.294512   0.000000     0.00199203
      388           0.145917   0.291834   0.000000     0.00199203
      389           0.144578   0.289157   0.000000     0.00199203
      390           0.143239   0.286479   0.000000     0.00199203
      391           0.141901   0.283802   0.000000     0.00199203
      392           0.140562   0.281125   0.000000     0.00199203
      393           0.139223   0.278447   0.000000     0.00199203
      394           0.137885   0.275770   0.000000     0.00199203
      395           0.136546   0.273093   0.000000     0.00199203
      396           0.135207   0.270415   0.000000     0.00199203
      397           0.133869   0.267738   0.000000     0.00199203
      398           0.132530   0.265060   0.000000     0.00199203
      399           0.131191   0.262383   0.000000     0.00199203
      400           0.129853   0.259706   0.000000     0.00199203
      401           0.128514   0.257028   0.000000     0.00199203
      402           0.127175   0.254351   0.000000     0.00199203
      403           0.125837   0.251673   0.000000     0.00199203
      404           0.124498   0.248996   0.000000     0.00199203
      405           0.123159   0.246319   0.000000     0.00199203
      406           0.121820   0.243641   0.000000     0.00199203
      407           0.120482   0.240964   0.000000     0.00199203
      408           0.119143   0.238287   0.000000     0.00199203
      409           0.117804   0.235609   0.000000     0.00199203
      410           0.116466   0.232932   0.000000     0.00199203
      411           0.115127   0.230254   0.000000     0.00199203
      412           0.113788   0.227577   0.000000     0.00199203
      413           0.112450   0.224900   0.000000     0.00199203
      414           0.111111   0.222222   0.000000     0.00199203
      415           0.109772   0.219545   0.000000     0.00199203
      416           0.108434   0.216868   0.000000     0.00199203
      417           0.107095   0.214190   0.000000     0.00199203
      418           0.105756   0.211513   0.000000     0.00199203
      419           0.104418   0.208835   0.000000     0.00199203
      420           0.103079   0.206158   0.000000     0.00199203
      421           0.101740   0.203481   0.000000     0.00199203
      422           0.100402   0.200803   0.000000     0.00199203
      423           0.099063   0.198126   0.000000     0.00199203
      424           0.097724   0.195449   0.000000     0.00199203
      425           0.096385   0.192771   0.000000     0.00199203
      426           0.095047   0.190094   0.000000     0.00199203
      427           0.093708   0.187416   0.000000     0.00199203
      428           0.092369   0.184739   0.000000     0.00199203
      429           0.091031   0.182062   0.000000     0.00199203
      430           0.089692   0.179384   0.000000     0.00199203
      431           0.088353   0.176707   0.000000     0.00199203
      432           0.087015   0.174030   0.000000     0.00199203
      433           0.085676   0.171352   0.000000     0.00199203
      434           0.084337   0.168675   0.000000     0.00199203
      435           0.082999   0.165997   0.000000     0.00199203
      436           0.081660   0.163320   0.000000     0.00199203
      437           0.080321   0.160643   0.000000     0.00199203
      438           0.078983   0.157965   0.000000     0.00199203
      439           0.077644   0.155288   0.000000     0.00199203
      440           0.076305   0.152611   0.000000     0.00199203
      441           0.074966   0.149933   0.000000     0.00199203
      442           0.073628   0.147256   0.000000     0.00199203
      443           0.072289   0.144578   0.000000     0.00199203
      444           0.070950   0.141901   0.000000     0.00199203
      445           0.069612   0.139224   0.000000     0.00199203
      446           0.068273   0.136546   0.000000     0.00199203
      447           0.066934   0.133869   0.000000     0.00199203
      448           0.065596   0.131191   0.000000     0.00199203
      449           0.064257   0.128514   0.000000     0.00199203
      450           0.062918   0.125837   0.000000     0.00199203
      451           0.061580   0.123159   0.000000     0.00199203
      452           0.060241   0.120482   0.000000     0.00199203
      453           0.058902   0.117805   0.000000     0.00199203
      454           0.057564   0.115127   0.000000     0.00199203
      455           0.056225   0.112450   0.000000     0.00199203
      456           0.054886   0.109772   0.000000     0.00199203
      457           0.053547   0.107095   0.000000     0.00199203
      458           0.052209   0.104418   0.000000     0.00199203
      459           0.050870   0.101740   0.000000     0.00199203
      460           0.049531   0.099063   0.000000     0.00199203
      461           0.048193   0.096386   0.000000     0.00199203
      462           0.046854   0.093708   0.000000     0.00199203
      463           0.045515   0.091031   0.000000     0.00199203
      464           0.044177   0.088353   0.000000     0.00199203
      465           0.042838   0.085676   0.000000     0.00199203
      466           0.041499   0.082999   0.000000     0.00199203
      467           0.040161   0.080321   0.000000     0.00199203
      468           0.038822   0.077644   0.000000     0.00199203
      469           0.037483   0.074967   0.000000     0.00199203
      470           0.036145   0.072289   0.000000     0.00199203
      471           0.034806   0.069612   0.000000     0.00199203
      472           0.033467   0.066934   0.000000     0.00199203
      473           0.032128   0.064257   0.000000     0.00199203
      474           0.030790   0.061580   0.000000     0.00199203
      475           0.029451   0.058902   0.000000     0.00199203
      476           0.028112   0.056225   0.000000     0.00199203
      477           0.026774   0.053548   0.000000     0.00199203
      478           0.025435   0.050870   0.000000     0.00199203
      479           0.024096   0.048193   0.000000     0.00199203
      480           0.022758   0.045515   0.000000     0.00199203
      481           0.021419   0.042838   0.000000     0.00199203
      482           0.020080   0.040161   0.000000     0.00199203
      483           0.018742   0.037483   0.000000     0.00199203
      484           0.017403   0.034806   0.000000     0.00199203
      485           0.016064   0.032129   0.000000     0.00199203
      486           0.014726   0.029451   0.000000     0.00199203
      487           0.013387   0.026774   0.000000     0.00199203
      488           0.012048   0.024096   0.000000     0.00199203
      489           0.010709   0.021419   0.000000     0.00199203
      490           0.009371   0.018742   0.000000     0.00199203
      491           0.008032   0.016064   0.000000     0.00199203
      492           0.006693   0.013387   0.000000     0.00199203
      493           0.005355   0.010710   0.000000     0.00199203
      494           0.004016   0.008032   0.000000     0.00199203
      495           0.002677   0.005355   0.000000     0.00199203
      496           0.001339   0.002677   0.000000     0.00199203
      497           0.000000   0.000000   0.000000     0.00199203
      498           0.050000   0.500000   0.500000     0.00199203
      499           0.150000   0.500000   0.500000     0.00199203
      500           0.250000   0.500000   0.500000     0.00199203
      501           0.350000   0.500000   0.500000     0.00199203
      502           0.450000   0.500000   0.500000     0.00199203
--------------------------------------------------------------------------------


********************************************************************************
*  General input information                                                   *
********************************************************************************

  Species output for all configurations : 

--------------------------------------------------------------------------------
  Species    Type    Atomic    Atomic    Charge       Radii (Angs)     Library
                     Number     Mass       (e)     Cova   Ionic  VDW   Symbol
--------------------------------------------------------------------------------
    C        Core        6      12.01   0.000000   0.770  0.000  1.530          
--------------------------------------------------------------------------------


  Lattice summation method               =    Ewald          (3-D)
                                         =    Parry          (2-D)
                                         =    Saunders et al (1-D)
  Accuracy factor for lattice sums       =   12.000


  Time limit = Infinity

  Maximum range for interatomic potentials =    100000.000000 Angstroms

  General interatomic potentials :

--------------------------------------------------------------------------------
Atom  Types   Potential      Parameter       Value         Units   Cutoffs(Ang)
  1     2                                                            Min /  Max 
--------------------------------------------------------------------------------
C    c C    c Force const   Longitudinal K   45.312500    eV*Ang^-2 0.000  1.500
                            Transverse   K   1.0000000    eV*Ang^-2 
--------------------------------------------------------------------------------
C    c C    c Force const   Longitudinal K   6.3125000    eV*Ang^-2 1.500  2.500
                            Transverse   K   1.0000000    eV*Ang^-2 
--------------------------------------------------------------------------------

  General Three-body potentials :

--------------------------------------------------------------------------------
  Atoms       Potential      Parameter       Value         Units   Cutoffs(Ang)
  1 / 2 / 3                                                          Min /  Max 
--------------------------------------------------------------------------------
C     core    Harmonic      Three-body cnst  5.3244260    eV*rad^-2 0.000  1.500
C     core                  Three-body angl  120.00000    degrees   0.000  1.500
C     core                  Three-body k4    0.0000000    eV*rad^-4 0.000  2.500
                            Three-body k3    0.0000000    eV*rad^-3 
--------------------------------------------------------------------------------

********************************************************************************
*  Output for configuration   1                                                *
********************************************************************************


  Components of energy : 

--------------------------------------------------------------------------------
  Interatomic potentials     =           0.00000000 eV    
  Three-body potentials      =           0.00000000 eV    
  Monopole - monopole (real) =           0.00000000 eV    
  Monopole - monopole (recip)=           0.00000000 eV    
  Monopole - monopole (total)=           0.00000000 eV    
--------------------------------------------------------------------------------
  Total lattice energy       =           0.00000000 eV    
--------------------------------------------------------------------------------
  Total lattice energy       =               0.0000 kJ/(mole unit cells)
--------------------------------------------------------------------------------


  Elastic Constant Matrix: (Units=GPa)

-------------------------------------------------------------------------------
  Indices      1         2         3         4         5         6    
-------------------------------------------------------------------------------
       1    132.9044   33.9471    0.0000    0.0000    0.0000    0.0000
       2     33.9471  132.9044    0.0000    0.0000    0.0000    0.0000
       3      0.0000    0.0000    0.0000    0.0000    0.0000    0.0000
       4      0.0000    0.0000    0.0000    6.4752    0.0000    0.0000
       5      0.0000    0.0000    0.0000    0.0000    6.4752    0.0000
       6      0.0000    0.0000    0.0000    0.0000    0.0000   49.4786
-------------------------------------------------------------------------------

  Elastic Constant Tensor Eigenvalues: (Units=GPa)

-------------------------------------------------------------------------------
     1 =    -0.0000     2 =     6.4752     3 =     6.4752
     4 =    49.4786     5 =    98.9573     6 =   166.8515
-------------------------------------------------------------------------------
  No. of non-positive eigenvalues = 1 => system is elastically unstable
-------------------------------------------------------------------------------

  Mechanical properties :

-------------------------------------------------------------------------------
  Convention :                    Reuss         Voigt         Hill
-------------------------------------------------------------------------------
  Bulk  Modulus (GPa)     =       0.02967      37.07812      18.55389
  Shear Modulus (GPa)     =       0.07963      27.94324      14.01144
-------------------------------------------------------------------------------
  Velocity S-wave (km/s)  =       0.72329      13.54906       9.59428
  Velocity P-wave (km/s)  =       0.94468      22.09886      15.64052
-------------------------------------------------------------------------------
  Compressibility (1/GPa) =   33.70727764
-------------------------------------------------------------------------------
  Stress axis :                     x             y             z
-------------------------------------------------------------------------------
  Youngs Moduli (GPa)     =     132.90442     124.23343       0.00000
-------------------------------------------------------------------------------
  Poissons Ratio (x)      =                 -4217.36835      -0.00000
  Poissons Ratio (y)      =   -4511.72354                    -0.00000
  Poissons Ratio (z)      =      -0.00000      -0.00000
-------------------------------------------------------------------------------


  Piezoelectric Strain Matrix: (Units=C/m**2)

-------------------------------------------------------------------------------
  Indices      1         2         3         4         5         6    
-------------------------------------------------------------------------------
       x    -0.00000  -0.00000  -0.00000  -0.00000  -0.00000  -0.00000
       y    -0.00000  -0.00000  -0.00000  -0.00000  -0.00000  -0.00000
       z    -0.00000  -0.00000  -0.00000  -0.00000  -0.00000  -0.00000
-------------------------------------------------------------------------------


  Piezoelectric Stress Matrix: (Units=10**-11 C/N)

-------------------------------------------------------------------------------
  Indices      1         2         3         4         5         6    
-------------------------------------------------------------------------------
       x     0.00000   0.00000   0.00000   0.00000   0.00000   0.00000
       y     0.00000   0.00000   0.00000   0.00000   0.00000   0.00000
       z     0.00000   0.00000   0.00000   0.00000   0.00000   0.00000
-------------------------------------------------------------------------------


  Static dielectric constant tensor : 

-------------------------------------------------------------------------------
              x         y         z
-------------------------------------------------------------------------------
       x     1.00000   0.00000   0.00000
       y     0.00000   1.00000   0.00000
       z     0.00000   0.00000   1.00000
--------------------------------------------------------------------------------

  Static refractive indices : 

-------------------------------------------------------------------------------
    1 =    1.00000      2 =    1.00000      3 =    1.00000
-------------------------------------------------------------------------------


  Phonon Calculation : 

  K direction for n-a correction at gamma =  1.00000  1.00000  1.00000

  Number of k points for this configuration =      502

--------------------------------------------------------------------------------
  Phonon properties (per mole of unit cells): Temperature =      0.000 K
--------------------------------------------------------------------------------
  Zero point energy            =        0.400183 eV
--------------------------------------------------------------------------------

  Phonon density of states : 

--------------------------------------------------------------------------------
 Frequency (cm-1) Density of States                                             
--------------------------------------------------------------------------------
    0.00000 |                                                              0.000
   30.53802 |                                                              0.000
   61.07605 |                                                              0.000
   91.61407 |                                                              0.000
  122.15210 |                                                              0.000
  152.69012 |                                                              0.000
  183.22815 |                                                              0.000
  213.76617 |                                                              0.000
  244.30419 |                                                              0.000
  274.84222 |                                                              0.000
  305.38024 |                                                              0.000
  335.91827 |                                                              0.000
  366.45629 |                                                              0.000
  396.99432 |                                                              0.000
  427.53234 |                                                              0.000
  458.07036 |************************************************************  0.167
  488.60839 |                                                              0.000
  519.14641 |************************************************************  0.167
  549.68444 |                                                              0.000
  580.22246 |                                                              0.000
  610.76049 |                                                              0.000
  641.29851 |                                                              0.000
  671.83654 |                                                              0.000
  702.37456 |                                                              0.000
  732.91258 |                                                              0.000
  763.45061 |                                                              0.000
  793.98863 |                                                              0.000
  824.52666 |                                                              0.000
  855.06468 |                                                              0.000
  885.60271 |                                                              0.000
  916.14073 |                                                              0.000
  946.67875 |                                                              0.000
  977.21678 |************************                                      0.067
 1007.75480 |                                                              0.000
 1038.29283 |                                                              0.000
 1068.83085 |************************                                      0.067
 1099.36888 |                                                              0.000
 1129.90690 |************                                                  0.033
 1160.44492 |                                                              0.000
 1190.98295 |                                                              0.000
 1221.52097 |                                                              0.000
 1252.05900 |                                                              0.000
 1282.59702 |                                                              0.000
 1313.13505 |                                                              0.000
 1343.67307 |                                                              0.000
 1374.21109 |                                                              0.000
 1404.74912 |                                                              0.000
 1435.28714 |************                                                  0.033
 1465.82517 |                                                              0.000
 1496.36319 |                                                              0.000
 1526.90122 |************************                                      0.067
 1557.43924 |                                                              0.000
 1587.97726 |                                                              0.000
 1618.51529 |                                                              0.000
 1649.05331 |************************                                      0.067
 1679.59134 |                                                              0.000
 1710.12936 |                                                              0.000
 1740.66739 |                                                              0.000
 1771.20541 |************************                                      0.067
 1801.74343 |************************************                          0.100
 1832.28146 |                                                              0.000
 1862.81948 |                                                              0.000
 1893.35751 |************************                                      0.067
 1923.89553 |************************************                          0.100
--------------------------------------------------------------------------------




  Phonon density of states written as abc.dens                      



  Phonon dispersion curves : 

--------------------------------------------------------------------------------
  Section number =   1
--------------------------------------------------------------------------------
  Frequency (cm-1) Phonon dispersion                                            
--------------------------------------------------------------------------------
  1982.06   |*****************                          *****************
  1899.47   |              *******************************               
  1816.89   |                    *****           ****                    
  1734.30   |                        ****      ***                       
  1651.72   |                        *****  ****                         
  1569.13   |                      ***   *****                           
  1486.54   |                    ***         ****                        
  1403.96   |                   **               ***                     
  1321.37   |                 ***        *****     ***                   
  1238.79   |                **          *   ***     ***                 
  1156.20   |              ***           *     ***     **                
  1073.62   |             **            *         **     **              
   991.03   |            **             *          ***    **             
   908.44   |           **       *******             ***   **            
   825.86   |          **     ****                     **    **          
   743.27   |         **    ***                          **   **         
   660.69   |       **    ***                             ***  **        
   578.10   |      **   ***                                 **  **       
   495.51   |     **  ***     *************************      *** **      
   412.93   |    ** **********************     ****************** **     
   330.34   |*********    *****                       ******    *********
   247.76   |  *****  *****                                *****  ****   
   165.17   | **** ****                                        **** ***  
    82.59   |******                                               ****** 
     0.00   |***                                                     ****
--------------------------------------------------------------------------------


  Phonon dispersion written as abc.disp                      

  Time to end of properties =       0.0280 seconds


  Peak dynamic memory used =       0.60 MB 


  Timing analysis for GULP :

--------------------------------------------------------------------------------
  Task / Subroutine                                          Time (Seconds)
--------------------------------------------------------------------------------
  Calculation of real space energy and derivatives                0.0080
  Calculation of three-body energy and derivatives                0.0080
  Calculation of phonons                                          0.0240
  Disk read/write operations to scratch files                     0.0040
--------------------------------------------------------------------------------
  Total CPU time                                                  0.0280
--------------------------------------------------------------------------------


  Job Finished at 11:04.18  4th June       2019                               

