********************************************************************************
*                       GENERAL UTILITY LATTICE PROGRAM                        *
*                                 Julian Gale                                  *
*                       Curtin Institute for Computation                       *
*                           Department of Chemistry                            *
*                    Curtin University, Western Australia                      *
********************************************************************************
* Version = 5.1.1 * Last modified =  11th April 2019                           *
********************************************************************************
*  single       - perform a single point run                                   *
*  phonon       - calculate phonons for final geometry                         *
********************************************************************************

  Job Started  at 10:11.49  7th June       2019                               

  Number of CPUs =     1


  Total number of configurations input =      1

********************************************************************************
*  Input for Configuration =   1                                               *
********************************************************************************

  Formula = ZnS                                                         

  Number of irreducible atoms/shells =       3


  Total number atoms/shells =       3

  Dimensionality = 3               :  Bulk   



  Cartesian lattice vectors (Angstroms) :

        3.850000    0.000000    0.000000
        1.925000    3.334198    0.000000
        1.925000    1.111399    3.143512

  Cell parameters (Angstroms/Degrees):

  a =       3.8500    alpha =  60.0000
  b =       3.8500    beta  =  60.0000
  c =       3.8500    gamma =  60.0000

  Initial cell volume =          40.352198 Angs**3

  Shrinking factors =      1     1     1

  Temperature of configuration =  0.000     K 

  Pressure of configuration =         0.000 GPa 

  Fractional coordinates of asymmetric unit :

--------------------------------------------------------------------------------
   No.  Atomic       x           y          z         Charge      Occupancy
        Label      (Frac)      (Frac)     (Frac)        (e)         (Frac)  
--------------------------------------------------------------------------------
      1 Zn    c    0.000000    0.000000    0.000000     2.00000    1.000000    
      2 S     c    0.250000    0.250000    0.250000     1.35700    1.000000    
      3 S     s    0.250000    0.250000    0.250000    -3.35700    1.000000    
--------------------------------------------------------------------------------


  Brillouin zone sampling points :

--------------------------------------------------------------------------------
  Point number          x          y          z            Weight
--------------------------------------------------------------------------------
        1           0.000000   0.000000   0.000000     0.66666667
        2           0.500000   0.500000   0.500000     0.33333333
--------------------------------------------------------------------------------


********************************************************************************
*  General input information                                                   *
********************************************************************************

  Species output for all configurations : 

--------------------------------------------------------------------------------
  Species    Type    Atomic    Atomic    Charge       Radii (Angs)     Library
                     Number     Mass       (e)     Cova   Ionic  VDW   Symbol
--------------------------------------------------------------------------------
    Zn       Core       30      65.39   2.000000   1.450  0.000  2.160          
    S        Core       16      32.07   1.357000   1.020  0.000  1.700          
    S        Shell      16       0.00  -3.357000   1.020  0.000  0.000          
--------------------------------------------------------------------------------


  Lattice summation method               =    Ewald          (3-D)
                                         =    Parry          (2-D)
                                         =    Saunders et al (1-D)
  Accuracy factor for lattice sums       =   12.000


  Time limit = Infinity

  Maximum range for interatomic potentials =    100000.000000 Angstroms

  General interatomic potentials :

--------------------------------------------------------------------------------
Atom  Types   Potential      Parameter       Value         Units   Cutoffs(Ang)
  1     2                                                            Min /  Max 
--------------------------------------------------------------------------------
Zn   c S    s Buckingham    Buckingham A     213.20000    eV        0.000 15.000
                            Buckingham rho  0.47500000    Ang       
                            Buckingham C     0.0000000    eV*Ang^6  
--------------------------------------------------------------------------------
S    s S    s Buckingham    Buckingham A     11413.090    eV        0.000 15.000
                            Buckingham rho  0.15300000    Ang       
                            Buckingham C     0.0000000    eV*Ang^6  
--------------------------------------------------------------------------------
Zn   c S    s Lennard       Lennard-Jones A  664.35000    eV*Ang^m  0.000 15.000
                            Lennard-Jones B  10.540000    eV*Ang^n  
                            Exponent m         9          None
                            Exponent n         6          None
--------------------------------------------------------------------------------
S    s S    s Lennard       Lennard-Jones A  0.0000000    eV*Ang^m  0.000 15.000
                            Lennard-Jones B  129.18000    eV*Ang^n  
                            Exponent m         9          None
                            Exponent n         6          None
--------------------------------------------------------------------------------
S    c S    s Spring (c-s)  Spring k 2       27.690000    eV*Ang^-2 0.000  0.800
                            Spring k 4       0.0000000    eV*Ang^-4 
--------------------------------------------------------------------------------

  General Three-body potentials :

--------------------------------------------------------------------------------
  Atoms       Potential      Parameter       Value         Units   Cutoffs(Ang)
  1 / 2 / 3                                                          Min /  Max 
--------------------------------------------------------------------------------
Zn    core    Harmonic      Three-body cnst 0.77800000    eV*rad^-2 0.000  2.400
S     shel                  Three-body angl  109.47000    degrees   0.000  2.400
S     shel                  Three-body k4    0.0000000    eV*rad^-4 0.000  3.900
                            Three-body k3    0.0000000    eV*rad^-3 
--------------------------------------------------------------------------------

********************************************************************************
*  Output for configuration   1                                                *
********************************************************************************


  Components of energy : 

--------------------------------------------------------------------------------
  Interatomic potentials     =           6.80240952 eV    
  Three-body potentials      =           0.00000000 eV    
  Monopole - monopole (real) =          -5.44400832 eV    
  Monopole - monopole (recip)=         -34.57509260 eV    
  Monopole - monopole (total)=         -40.01910091 eV    
--------------------------------------------------------------------------------
  Total lattice energy       =         -33.21669139 eV    
--------------------------------------------------------------------------------
  Total lattice energy       =           -3204.9030 kJ/(mole unit cells)
--------------------------------------------------------------------------------

  Born effective charge tensors : 

-------------------------------------------------------------------------------
  Atom             x           y             z
-------------------------------------------------------------------------------
    1 Zn    x       1.8665     -0.0000     -0.0000
            y      -0.0000      1.8665     -0.0000
            z      -0.0000     -0.0000      1.8665
-------------------------------------------------------------------------------
    2 S     x      -1.8665      0.0000      0.0000
            y       0.0000     -1.8665      0.0000
            z       0.0000      0.0000     -1.8665
-------------------------------------------------------------------------------




  Elastic Constant Matrix: (Units=GPa)

-------------------------------------------------------------------------------
  Indices      1         2         3         4         5         6    
-------------------------------------------------------------------------------
       1    123.0651   55.2098   48.1106   10.0397    0.0000    0.0000
       2     55.2098  123.0651   48.1106  -10.0397    0.0000    0.0000
       3     48.1106   48.1106  130.1643    0.0000    0.0000    0.0000
       4     10.0397  -10.0397    0.0000   26.8285    0.0000    0.0000
       5      0.0000    0.0000    0.0000    0.0000   26.8285   10.0397
       6      0.0000    0.0000    0.0000    0.0000   10.0397   33.9277
-------------------------------------------------------------------------------

  Elastic Constant Tensor Eigenvalues: (Units=GPa)

-------------------------------------------------------------------------------
     1 =    19.7293     2 =    22.3941     3 =    41.0268
     4 =    72.2897     5 =    82.0537     6 =   226.3856
-------------------------------------------------------------------------------


  Elastic Compliance Matrix: (Units=1/GPa)

-------------------------------------------------------------------------------
  Indices      1         2         3         4         5         6    
-------------------------------------------------------------------------------
       1    0.011790 -0.004783 -0.002590 -0.006202 -0.000000 -0.000000
       2   -0.004783  0.011790 -0.002590  0.006202 -0.000000 -0.000000
       3   -0.002590 -0.002590  0.009597 -0.000000 -0.000000  0.000000
       4   -0.006202  0.006202 -0.000000  0.041915 -0.000000 -0.000000
       5   -0.000000 -0.000000 -0.000000 -0.000000  0.041915 -0.012403
       6   -0.000000 -0.000000  0.000000 -0.000000 -0.012403  0.033145
-------------------------------------------------------------------------------

  Mechanical properties :

-------------------------------------------------------------------------------
  Convention :                    Reuss         Voigt         Hill
-------------------------------------------------------------------------------
  Bulk  Modulus (GPa)     =      75.46186      75.46186      75.46186
  Shear Modulus (GPa)     =      28.65415      32.50784      30.58099
-------------------------------------------------------------------------------
  Velocity S-wave (km/s)  =       2.67292       2.84699       2.76133
  Velocity P-wave (km/s)  =       5.32366       5.44266       5.38349
-------------------------------------------------------------------------------
  Compressibility (1/GPa) =    0.01325173
-------------------------------------------------------------------------------
  Stress axis :                     x             y             z
-------------------------------------------------------------------------------
  Youngs Moduli (GPa)     =      84.81896      84.81896     104.19731
-------------------------------------------------------------------------------
  Poissons Ratio (x)      =                     0.40566       0.26987
  Poissons Ratio (y)      =       0.40566                     0.26987
  Poissons Ratio (z)      =       0.21968       0.21968
-------------------------------------------------------------------------------


  Piezoelectric Strain Matrix: (Units=C/m**2)

-------------------------------------------------------------------------------
  Indices      1         2         3         4         5         6    
-------------------------------------------------------------------------------
       x     0.00000   0.00000   0.00000   0.00000  -1.40364  -1.98505
       y    -1.98505   1.98505   0.00000  -1.40364   0.00000   0.00000
       z    -1.40364  -1.40364   2.80728   0.00000   0.00000   0.00000
-------------------------------------------------------------------------------


  Piezoelectric Stress Matrix: (Units=10**-11 C/N)

-------------------------------------------------------------------------------
  Indices      1         2         3         4         5         6    
-------------------------------------------------------------------------------
       x     0.00000   0.00000  -0.00000   0.00000  -3.42127  -4.83841
       y    -2.41920   2.41920  -0.00000  -3.42127   0.00000   0.00000
       z    -1.71064  -1.71064   3.42127   0.00000   0.00000   0.00000
-------------------------------------------------------------------------------


  Static dielectric constant tensor : 

-------------------------------------------------------------------------------
              x         y         z
-------------------------------------------------------------------------------
       x     6.52062  -0.00000  -0.00000
       y    -0.00000   6.52062  -0.00000
       z    -0.00000  -0.00000   6.52062
--------------------------------------------------------------------------------

  High frequency dielectric constant tensor : 

-------------------------------------------------------------------------------
              x         y         z
-------------------------------------------------------------------------------
       x     3.32399  -0.00000  -0.00000
       y    -0.00000   3.32399  -0.00000
       z    -0.00000  -0.00000   3.32399
-------------------------------------------------------------------------------

  Static refractive indices : 

-------------------------------------------------------------------------------
    1 =    2.55355      2 =    2.55355      3 =    2.55355
-------------------------------------------------------------------------------

  High frequency refractive indices : 

-------------------------------------------------------------------------------
    1 =    1.82318      2 =    1.82318      3 =    1.82318
-------------------------------------------------------------------------------


  Phonon Calculation : 

  Number of k points for this configuration =        2

--------------------------------------------------------------------------------
  K point      1 =   0.000000  0.000000  0.000000  Weight =    0.667
--------------------------------------------------------------------------------

  Frequencies (cm-1) [NB: Negative implies an imaginary mode]:

   -0.00    0.00    0.00  248.52  248.52  248.52


--------------------------------------------------------------------------------
  K point      2 =   0.500000  0.500000  0.500000  Weight =    0.333
--------------------------------------------------------------------------------

  Frequencies (cm-1) [NB: Negative implies an imaginary mode]:

   89.03   89.03  239.60  241.59  241.59  279.40


--------------------------------------------------------------------------------
  Phonon properties (per mole of unit cells): Temperature =      0.000 K
--------------------------------------------------------------------------------
  Zero point energy            =        0.055202 eV
--------------------------------------------------------------------------------

  Phonon density of states : 

--------------------------------------------------------------------------------
 Frequency (cm-1) Density of States                                             
--------------------------------------------------------------------------------
    0.00000 |****************************************                      0.250
    4.36556 |                                                              0.000
    8.73112 |                                                              0.000
   13.09669 |                                                              0.000
   17.46225 |                                                              0.000
   21.82781 |                                                              0.000
   26.19337 |                                                              0.000
   30.55893 |                                                              0.000
   34.92450 |                                                              0.000
   39.29006 |                                                              0.000
   43.65562 |                                                              0.000
   48.02118 |                                                              0.000
   52.38674 |                                                              0.000
   56.75231 |                                                              0.000
   61.11787 |                                                              0.000
   65.48343 |                                                              0.000
   69.84899 |                                                              0.000
   74.21455 |                                                              0.000
   78.58011 |                                                              0.000
   82.94568 |                                                              0.000
   87.31124 |********************                                          0.125
   91.67680 |                                                              0.000
   96.04236 |                                                              0.000
  100.40792 |                                                              0.000
  104.77349 |                                                              0.000
  109.13905 |                                                              0.000
  113.50461 |                                                              0.000
  117.87017 |                                                              0.000
  122.23573 |                                                              0.000
  126.60130 |                                                              0.000
  130.96686 |                                                              0.000
  135.33242 |                                                              0.000
  139.69798 |                                                              0.000
  144.06354 |                                                              0.000
  148.42911 |                                                              0.000
  152.79467 |                                                              0.000
  157.16023 |                                                              0.000
  161.52579 |                                                              0.000
  165.89135 |                                                              0.000
  170.25692 |                                                              0.000
  174.62248 |                                                              0.000
  178.98804 |                                                              0.000
  183.35360 |                                                              0.000
  187.71916 |                                                              0.000
  192.08473 |                                                              0.000
  196.45029 |                                                              0.000
  200.81585 |                                                              0.000
  205.18141 |                                                              0.000
  209.54697 |                                                              0.000
  213.91253 |                                                              0.000
  218.27810 |                                                              0.000
  222.64366 |                                                              0.000
  227.00922 |                                                              0.000
  231.37478 |                                                              0.000
  235.74034 |**********                                                    0.062
  240.10591 |********************                                          0.125
  244.47147 |************************************************************  0.375
  248.83703 |                                                              0.000
  253.20259 |                                                              0.000
  257.56815 |                                                              0.000
  261.93372 |                                                              0.000
  266.29928 |                                                              0.000
  270.66484 |                                                              0.000
  275.03040 |**********                                                    0.062
--------------------------------------------------------------------------------




  Phonon density of states written on channel 17



  XYZ File written as gulp.xyz


  Time to end of properties =       0.0080 seconds


  Peak dynamic memory used =       0.52 MB 


  Timing analysis for GULP :

--------------------------------------------------------------------------------
  Task / Subroutine                                          Time (Seconds)
--------------------------------------------------------------------------------
  Calculation of real space energy and derivatives                0.0040
--------------------------------------------------------------------------------
  Total CPU time                                                  0.0080
--------------------------------------------------------------------------------


  Job Finished at 10:11.49  7th June       2019                               

