********************************************************************************
*                       GENERAL UTILITY LATTICE PROGRAM                        *
*                                 Julian Gale                                  *
*                       Curtin Institute for Computation                       *
*                           Department of Chemistry                            *
*                    Curtin University, Western Australia                      *
********************************************************************************
* Version = 5.1.1 * Last modified =  11th April 2019                           *
********************************************************************************


!!!!!!!!!!!!!!!!!!!!!!!!!!!!!!!!!!!!!!!!!!!!!!!!!!!!!!!!!!!!!!!!!!!!!!!!!!!!!!!!
!! WARNING : invalid filetype supplied in output option
!!!!!!!!!!!!!!!!!!!!!!!!!!!!!!!!!!!!!!!!!!!!!!!!!!!!!!!!!!!!!!!!!!!!!!!!!!!!!!!!



!!!!!!!!!!!!!!!!!!!!!!!!!!!!!!!!!!!!!!!!!!!!!!!!!!!!!!!!!!!!!!!!!!!!!!!!!!!!!!!!
!! WARNING : invalid filetype supplied in output option
!!!!!!!!!!!!!!!!!!!!!!!!!!!!!!!!!!!!!!!!!!!!!!!!!!!!!!!!!!!!!!!!!!!!!!!!!!!!!!!!



!!!!!!!!!!!!!!!!!!!!!!!!!!!!!!!!!!!!!!!!!!!!!!!!!!!!!!!!!!!!!!!!!!!!!!!!!!!!!!!!
!! WARNING : invalid filetype supplied in output option
!!!!!!!!!!!!!!!!!!!!!!!!!!!!!!!!!!!!!!!!!!!!!!!!!!!!!!!!!!!!!!!!!!!!!!!!!!!!!!!!



!!!!!!!!!!!!!!!!!!!!!!!!!!!!!!!!!!!!!!!!!!!!!!!!!!!!!!!!!!!!!!!!!!!!!!!!!!!!!!!!
!! WARNING : invalid filetype supplied in output option
!!!!!!!!!!!!!!!!!!!!!!!!!!!!!!!!!!!!!!!!!!!!!!!!!!!!!!!!!!!!!!!!!!!!!!!!!!!!!!!!

*  single       - perform a single point run                                   *
*  phonon       - calculate phonons for final geometry                         *
********************************************************************************

  Job Started  at 14:52.06  7th June       2019                               

  Number of CPUs =     1


  Total number of configurations input =      1

********************************************************************************
*  Input for Configuration =   1                                               *
********************************************************************************

  Formula = ZnS                                                         

  Number of irreducible atoms/shells =       3


  Total number atoms/shells =       3

  Dimensionality = 3               :  Bulk   



  Cartesian lattice vectors (Angstroms) :

        3.850000    0.000000    0.000000
        1.925000    3.334198    0.000000
        1.925000    1.111399    3.143512

  Cell parameters (Angstroms/Degrees):

  a =       3.8500    alpha =  60.0000
  b =       3.8500    beta  =  60.0000
  c =       3.8500    gamma =  60.0000

  Initial cell volume =          40.352198 Angs**3

  Shrinking factors =      1     1     1

  Temperature of configuration =  0.000     K 

  Pressure of configuration =         0.000 GPa 

  Fractional coordinates of asymmetric unit :

--------------------------------------------------------------------------------
   No.  Atomic       x           y          z         Charge      Occupancy
        Label      (Frac)      (Frac)     (Frac)        (e)         (Frac)  
--------------------------------------------------------------------------------
      1 Zn    c    0.000000    0.000000    0.000000     2.00000    1.000000    
      2 S     c    0.250000    0.250000    0.250000     1.35700    1.000000    
      3 S     s    0.250000    0.250000    0.250000    -3.35700    1.000000    
--------------------------------------------------------------------------------


  Brillouin zone sampling points :

--------------------------------------------------------------------------------
  Point number          x          y          z            Weight
--------------------------------------------------------------------------------
        1           0.000000   0.000000   0.000000     0.00166528
        2           0.002513   0.000000   0.002513     0.00166528
        3           0.005025   0.000000   0.005025     0.00166528
        4           0.007538   0.000000   0.007538     0.00166528
        5           0.010050   0.000000   0.010050     0.00166528
        6           0.012563   0.000000   0.012563     0.00166528
        7           0.015075   0.000000   0.015075     0.00166528
        8           0.017588   0.000000   0.017588     0.00166528
        9           0.020101   0.000000   0.020101     0.00166528
       10           0.022613   0.000000   0.022613     0.00166528
       11           0.025126   0.000000   0.025126     0.00166528
       12           0.027638   0.000000   0.027638     0.00166528
       13           0.030151   0.000000   0.030151     0.00166528
       14           0.032663   0.000000   0.032663     0.00166528
       15           0.035176   0.000000   0.035176     0.00166528
       16           0.037688   0.000000   0.037688     0.00166528
       17           0.040201   0.000000   0.040201     0.00166528
       18           0.042714   0.000000   0.042714     0.00166528
       19           0.045226   0.000000   0.045226     0.00166528
       20           0.047739   0.000000   0.047739     0.00166528
       21           0.050251   0.000000   0.050251     0.00166528
       22           0.052764   0.000000   0.052764     0.00166528
       23           0.055276   0.000000   0.055276     0.00166528
       24           0.057789   0.000000   0.057789     0.00166528
       25           0.060302   0.000000   0.060302     0.00166528
       26           0.062814   0.000000   0.062814     0.00166528
       27           0.065327   0.000000   0.065327     0.00166528
       28           0.067839   0.000000   0.067839     0.00166528
       29           0.070352   0.000000   0.070352     0.00166528
       30           0.072864   0.000000   0.072864     0.00166528
       31           0.075377   0.000000   0.075377     0.00166528
       32           0.077889   0.000000   0.077889     0.00166528
       33           0.080402   0.000000   0.080402     0.00166528
       34           0.082915   0.000000   0.082915     0.00166528
       35           0.085427   0.000000   0.085427     0.00166528
       36           0.087940   0.000000   0.087940     0.00166528
       37           0.090452   0.000000   0.090452     0.00166528
       38           0.092965   0.000000   0.092965     0.00166528
       39           0.095477   0.000000   0.095477     0.00166528
       40           0.097990   0.000000   0.097990     0.00166528
       41           0.100503   0.000000   0.100503     0.00166528
       42           0.103015   0.000000   0.103015     0.00166528
       43           0.105528   0.000000   0.105528     0.00166528
       44           0.108040   0.000000   0.108040     0.00166528
       45           0.110553   0.000000   0.110553     0.00166528
       46           0.113065   0.000000   0.113065     0.00166528
       47           0.115578   0.000000   0.115578     0.00166528
       48           0.118090   0.000000   0.118090     0.00166528
       49           0.120603   0.000000   0.120603     0.00166528
       50           0.123116   0.000000   0.123116     0.00166528
       51           0.125628   0.000000   0.125628     0.00166528
       52           0.128141   0.000000   0.128141     0.00166528
       53           0.130653   0.000000   0.130653     0.00166528
       54           0.133166   0.000000   0.133166     0.00166528
       55           0.135678   0.000000   0.135678     0.00166528
       56           0.138191   0.000000   0.138191     0.00166528
       57           0.140704   0.000000   0.140704     0.00166528
       58           0.143216   0.000000   0.143216     0.00166528
       59           0.145729   0.000000   0.145729     0.00166528
       60           0.148241   0.000000   0.148241     0.00166528
       61           0.150754   0.000000   0.150754     0.00166528
       62           0.153266   0.000000   0.153266     0.00166528
       63           0.155779   0.000000   0.155779     0.00166528
       64           0.158291   0.000000   0.158291     0.00166528
       65           0.160804   0.000000   0.160804     0.00166528
       66           0.163317   0.000000   0.163317     0.00166528
       67           0.165829   0.000000   0.165829     0.00166528
       68           0.168342   0.000000   0.168342     0.00166528
       69           0.170854   0.000000   0.170854     0.00166528
       70           0.173367   0.000000   0.173367     0.00166528
       71           0.175879   0.000000   0.175879     0.00166528
       72           0.178392   0.000000   0.178392     0.00166528
       73           0.180905   0.000000   0.180905     0.00166528
       74           0.183417   0.000000   0.183417     0.00166528
       75           0.185930   0.000000   0.185930     0.00166528
       76           0.188442   0.000000   0.188442     0.00166528
       77           0.190955   0.000000   0.190955     0.00166528
       78           0.193467   0.000000   0.193467     0.00166528
       79           0.195980   0.000000   0.195980     0.00166528
       80           0.198492   0.000000   0.198492     0.00166528
       81           0.201005   0.000000   0.201005     0.00166528
       82           0.203518   0.000000   0.203518     0.00166528
       83           0.206030   0.000000   0.206030     0.00166528
       84           0.208543   0.000000   0.208543     0.00166528
       85           0.211055   0.000000   0.211055     0.00166528
       86           0.213568   0.000000   0.213568     0.00166528
       87           0.216080   0.000000   0.216080     0.00166528
       88           0.218593   0.000000   0.218593     0.00166528
       89           0.221106   0.000000   0.221106     0.00166528
       90           0.223618   0.000000   0.223618     0.00166528
       91           0.226131   0.000000   0.226131     0.00166528
       92           0.228643   0.000000   0.228643     0.00166528
       93           0.231156   0.000000   0.231156     0.00166528
       94           0.233668   0.000000   0.233668     0.00166528
       95           0.236181   0.000000   0.236181     0.00166528
       96           0.238693   0.000000   0.238693     0.00166528
       97           0.241206   0.000000   0.241206     0.00166528
       98           0.243719   0.000000   0.243719     0.00166528
       99           0.246231   0.000000   0.246231     0.00166528
      100           0.248744   0.000000   0.248744     0.00166528
      101           0.251256   0.000000   0.251256     0.00166528
      102           0.253769   0.000000   0.253769     0.00166528
      103           0.256281   0.000000   0.256281     0.00166528
      104           0.258794   0.000000   0.258794     0.00166528
      105           0.261307   0.000000   0.261307     0.00166528
      106           0.263819   0.000000   0.263819     0.00166528
      107           0.266332   0.000000   0.266332     0.00166528
      108           0.268844   0.000000   0.268844     0.00166528
      109           0.271357   0.000000   0.271357     0.00166528
      110           0.273869   0.000000   0.273869     0.00166528
      111           0.276382   0.000000   0.276382     0.00166528
      112           0.278894   0.000000   0.278894     0.00166528
      113           0.281407   0.000000   0.281407     0.00166528
      114           0.283920   0.000000   0.283920     0.00166528
      115           0.286432   0.000000   0.286432     0.00166528
      116           0.288945   0.000000   0.288945     0.00166528
      117           0.291457   0.000000   0.291457     0.00166528
      118           0.293970   0.000000   0.293970     0.00166528
      119           0.296482   0.000000   0.296482     0.00166528
      120           0.298995   0.000000   0.298995     0.00166528
      121           0.301508   0.000000   0.301508     0.00166528
      122           0.304020   0.000000   0.304020     0.00166528
      123           0.306533   0.000000   0.306533     0.00166528
      124           0.309045   0.000000   0.309045     0.00166528
      125           0.311558   0.000000   0.311558     0.00166528
      126           0.314070   0.000000   0.314070     0.00166528
      127           0.316583   0.000000   0.316583     0.00166528
      128           0.319095   0.000000   0.319095     0.00166528
      129           0.321608   0.000000   0.321608     0.00166528
      130           0.324121   0.000000   0.324121     0.00166528
      131           0.326633   0.000000   0.326633     0.00166528
      132           0.329146   0.000000   0.329146     0.00166528
      133           0.331658   0.000000   0.331658     0.00166528
      134           0.334171   0.000000   0.334171     0.00166528
      135           0.336683   0.000000   0.336683     0.00166528
      136           0.339196   0.000000   0.339196     0.00166528
      137           0.341709   0.000000   0.341709     0.00166528
      138           0.344221   0.000000   0.344221     0.00166528
      139           0.346734   0.000000   0.346734     0.00166528
      140           0.349246   0.000000   0.349246     0.00166528
      141           0.351759   0.000000   0.351759     0.00166528
      142           0.354271   0.000000   0.354271     0.00166528
      143           0.356784   0.000000   0.356784     0.00166528
      144           0.359296   0.000000   0.359296     0.00166528
      145           0.361809   0.000000   0.361809     0.00166528
      146           0.364322   0.000000   0.364322     0.00166528
      147           0.366834   0.000000   0.366834     0.00166528
      148           0.369347   0.000000   0.369347     0.00166528
      149           0.371859   0.000000   0.371859     0.00166528
      150           0.374372   0.000000   0.374372     0.00166528
      151           0.376884   0.000000   0.376884     0.00166528
      152           0.379397   0.000000   0.379397     0.00166528
      153           0.381910   0.000000   0.381910     0.00166528
      154           0.384422   0.000000   0.384422     0.00166528
      155           0.386935   0.000000   0.386935     0.00166528
      156           0.389447   0.000000   0.389447     0.00166528
      157           0.391960   0.000000   0.391960     0.00166528
      158           0.394472   0.000000   0.394472     0.00166528
      159           0.396985   0.000000   0.396985     0.00166528
      160           0.399497   0.000000   0.399497     0.00166528
      161           0.402010   0.000000   0.402010     0.00166528
      162           0.404523   0.000000   0.404523     0.00166528
      163           0.407035   0.000000   0.407035     0.00166528
      164           0.409548   0.000000   0.409548     0.00166528
      165           0.412060   0.000000   0.412060     0.00166528
      166           0.414573   0.000000   0.414573     0.00166528
      167           0.417085   0.000000   0.417085     0.00166528
      168           0.419598   0.000000   0.419598     0.00166528
      169           0.422111   0.000000   0.422111     0.00166528
      170           0.424623   0.000000   0.424623     0.00166528
      171           0.427136   0.000000   0.427136     0.00166528
      172           0.429648   0.000000   0.429648     0.00166528
      173           0.432161   0.000000   0.432161     0.00166528
      174           0.434673   0.000000   0.434673     0.00166528
      175           0.437186   0.000000   0.437186     0.00166528
      176           0.439698   0.000000   0.439698     0.00166528
      177           0.442211   0.000000   0.442211     0.00166528
      178           0.444724   0.000000   0.444724     0.00166528
      179           0.447236   0.000000   0.447236     0.00166528
      180           0.449749   0.000000   0.449749     0.00166528
      181           0.452261   0.000000   0.452261     0.00166528
      182           0.454774   0.000000   0.454774     0.00166528
      183           0.457286   0.000000   0.457286     0.00166528
      184           0.459799   0.000000   0.459799     0.00166528
      185           0.462312   0.000000   0.462312     0.00166528
      186           0.464824   0.000000   0.464824     0.00166528
      187           0.467337   0.000000   0.467337     0.00166528
      188           0.469849   0.000000   0.469849     0.00166528
      189           0.472362   0.000000   0.472362     0.00166528
      190           0.474874   0.000000   0.474874     0.00166528
      191           0.477387   0.000000   0.477387     0.00166528
      192           0.479899   0.000000   0.479899     0.00166528
      193           0.482412   0.000000   0.482412     0.00166528
      194           0.484925   0.000000   0.484925     0.00166528
      195           0.487437   0.000000   0.487437     0.00166528
      196           0.489950   0.000000   0.489950     0.00166528
      197           0.492462   0.000000   0.492462     0.00166528
      198           0.494975   0.000000   0.494975     0.00166528
      199           0.497487   0.000000   0.497487     0.00166528
      200           0.500000   0.000000   0.500000     0.00166528
      201           0.500000   0.000000   0.500000     0.00166528
      202           0.500000   0.001256   0.501256     0.00166528
      203           0.500000   0.002513   0.502513     0.00166528
      204           0.500000   0.003769   0.503769     0.00166528
      205           0.500000   0.005025   0.505025     0.00166528
      206           0.500000   0.006281   0.506281     0.00166528
      207           0.500000   0.007538   0.507538     0.00166528
      208           0.500000   0.008794   0.508794     0.00166528
      209           0.500000   0.010050   0.510050     0.00166528
      210           0.500000   0.011307   0.511307     0.00166528
      211           0.500000   0.012563   0.512563     0.00166528
      212           0.500000   0.013819   0.513819     0.00166528
      213           0.500000   0.015075   0.515075     0.00166528
      214           0.500000   0.016332   0.516332     0.00166528
      215           0.500000   0.017588   0.517588     0.00166528
      216           0.500000   0.018844   0.518844     0.00166528
      217           0.500000   0.020101   0.520101     0.00166528
      218           0.500000   0.021357   0.521357     0.00166528
      219           0.500000   0.022613   0.522613     0.00166528
      220           0.500000   0.023869   0.523869     0.00166528
      221           0.500000   0.025126   0.525126     0.00166528
      222           0.500000   0.026382   0.526382     0.00166528
      223           0.500000   0.027638   0.527638     0.00166528
      224           0.500000   0.028894   0.528894     0.00166528
      225           0.500000   0.030151   0.530151     0.00166528
      226           0.500000   0.031407   0.531407     0.00166528
      227           0.500000   0.032663   0.532663     0.00166528
      228           0.500000   0.033920   0.533920     0.00166528
      229           0.500000   0.035176   0.535176     0.00166528
      230           0.500000   0.036432   0.536432     0.00166528
      231           0.500000   0.037688   0.537688     0.00166528
      232           0.500000   0.038945   0.538945     0.00166528
      233           0.500000   0.040201   0.540201     0.00166528
      234           0.500000   0.041457   0.541457     0.00166528
      235           0.500000   0.042714   0.542714     0.00166528
      236           0.500000   0.043970   0.543970     0.00166528
      237           0.500000   0.045226   0.545226     0.00166528
      238           0.500000   0.046482   0.546482     0.00166528
      239           0.500000   0.047739   0.547739     0.00166528
      240           0.500000   0.048995   0.548995     0.00166528
      241           0.500000   0.050251   0.550251     0.00166528
      242           0.500000   0.051508   0.551508     0.00166528
      243           0.500000   0.052764   0.552764     0.00166528
      244           0.500000   0.054020   0.554020     0.00166528
      245           0.500000   0.055276   0.555276     0.00166528
      246           0.500000   0.056533   0.556533     0.00166528
      247           0.500000   0.057789   0.557789     0.00166528
      248           0.500000   0.059045   0.559045     0.00166528
      249           0.500000   0.060302   0.560302     0.00166528
      250           0.500000   0.061558   0.561558     0.00166528
      251           0.500000   0.062814   0.562814     0.00166528
      252           0.500000   0.064070   0.564070     0.00166528
      253           0.500000   0.065327   0.565327     0.00166528
      254           0.500000   0.066583   0.566583     0.00166528
      255           0.500000   0.067839   0.567839     0.00166528
      256           0.500000   0.069095   0.569095     0.00166528
      257           0.500000   0.070352   0.570352     0.00166528
      258           0.500000   0.071608   0.571608     0.00166528
      259           0.500000   0.072864   0.572864     0.00166528
      260           0.500000   0.074121   0.574121     0.00166528
      261           0.500000   0.075377   0.575377     0.00166528
      262           0.500000   0.076633   0.576633     0.00166528
      263           0.500000   0.077889   0.577889     0.00166528
      264           0.500000   0.079146   0.579146     0.00166528
      265           0.500000   0.080402   0.580402     0.00166528
      266           0.500000   0.081658   0.581658     0.00166528
      267           0.500000   0.082915   0.582915     0.00166528
      268           0.500000   0.084171   0.584171     0.00166528
      269           0.500000   0.085427   0.585427     0.00166528
      270           0.500000   0.086683   0.586683     0.00166528
      271           0.500000   0.087940   0.587940     0.00166528
      272           0.500000   0.089196   0.589196     0.00166528
      273           0.500000   0.090452   0.590452     0.00166528
      274           0.500000   0.091709   0.591709     0.00166528
      275           0.500000   0.092965   0.592965     0.00166528
      276           0.500000   0.094221   0.594221     0.00166528
      277           0.500000   0.095477   0.595477     0.00166528
      278           0.500000   0.096734   0.596734     0.00166528
      279           0.500000   0.097990   0.597990     0.00166528
      280           0.500000   0.099246   0.599246     0.00166528
      281           0.500000   0.100503   0.600503     0.00166528
      282           0.500000   0.101759   0.601759     0.00166528
      283           0.500000   0.103015   0.603015     0.00166528
      284           0.500000   0.104271   0.604271     0.00166528
      285           0.500000   0.105528   0.605528     0.00166528
      286           0.500000   0.106784   0.606784     0.00166528
      287           0.500000   0.108040   0.608040     0.00166528
      288           0.500000   0.109296   0.609296     0.00166528
      289           0.500000   0.110553   0.610553     0.00166528
      290           0.500000   0.111809   0.611809     0.00166528
      291           0.500000   0.113065   0.613065     0.00166528
      292           0.500000   0.114322   0.614322     0.00166528
      293           0.500000   0.115578   0.615578     0.00166528
      294           0.500000   0.116834   0.616834     0.00166528
      295           0.500000   0.118090   0.618090     0.00166528
      296           0.500000   0.119347   0.619347     0.00166528
      297           0.500000   0.120603   0.620603     0.00166528
      298           0.500000   0.121859   0.621859     0.00166528
      299           0.500000   0.123116   0.623116     0.00166528
      300           0.500000   0.124372   0.624372     0.00166528
      301           0.500000   0.125628   0.625628     0.00166528
      302           0.500000   0.126884   0.626884     0.00166528
      303           0.500000   0.128141   0.628141     0.00166528
      304           0.500000   0.129397   0.629397     0.00166528
      305           0.500000   0.130653   0.630653     0.00166528
      306           0.500000   0.131910   0.631910     0.00166528
      307           0.500000   0.133166   0.633166     0.00166528
      308           0.500000   0.134422   0.634422     0.00166528
      309           0.500000   0.135678   0.635678     0.00166528
      310           0.500000   0.136935   0.636935     0.00166528
      311           0.500000   0.138191   0.638191     0.00166528
      312           0.500000   0.139447   0.639447     0.00166528
      313           0.500000   0.140704   0.640704     0.00166528
      314           0.500000   0.141960   0.641960     0.00166528
      315           0.500000   0.143216   0.643216     0.00166528
      316           0.500000   0.144472   0.644472     0.00166528
      317           0.500000   0.145729   0.645729     0.00166528
      318           0.500000   0.146985   0.646985     0.00166528
      319           0.500000   0.148241   0.648241     0.00166528
      320           0.500000   0.149497   0.649497     0.00166528
      321           0.500000   0.150754   0.650754     0.00166528
      322           0.500000   0.152010   0.652010     0.00166528
      323           0.500000   0.153266   0.653266     0.00166528
      324           0.500000   0.154523   0.654523     0.00166528
      325           0.500000   0.155779   0.655779     0.00166528
      326           0.500000   0.157035   0.657035     0.00166528
      327           0.500000   0.158291   0.658291     0.00166528
      328           0.500000   0.159548   0.659548     0.00166528
      329           0.500000   0.160804   0.660804     0.00166528
      330           0.500000   0.162060   0.662060     0.00166528
      331           0.500000   0.163317   0.663317     0.00166528
      332           0.500000   0.164573   0.664573     0.00166528
      333           0.500000   0.165829   0.665829     0.00166528
      334           0.500000   0.167085   0.667085     0.00166528
      335           0.500000   0.168342   0.668342     0.00166528
      336           0.500000   0.169598   0.669598     0.00166528
      337           0.500000   0.170854   0.670854     0.00166528
      338           0.500000   0.172111   0.672111     0.00166528
      339           0.500000   0.173367   0.673367     0.00166528
      340           0.500000   0.174623   0.674623     0.00166528
      341           0.500000   0.175879   0.675879     0.00166528
      342           0.500000   0.177136   0.677136     0.00166528
      343           0.500000   0.178392   0.678392     0.00166528
      344           0.500000   0.179648   0.679648     0.00166528
      345           0.500000   0.180905   0.680905     0.00166528
      346           0.500000   0.182161   0.682161     0.00166528
      347           0.500000   0.183417   0.683417     0.00166528
      348           0.500000   0.184673   0.684673     0.00166528
      349           0.500000   0.185930   0.685930     0.00166528
      350           0.500000   0.187186   0.687186     0.00166528
      351           0.500000   0.188442   0.688442     0.00166528
      352           0.500000   0.189698   0.689698     0.00166528
      353           0.500000   0.190955   0.690955     0.00166528
      354           0.500000   0.192211   0.692211     0.00166528
      355           0.500000   0.193467   0.693467     0.00166528
      356           0.500000   0.194724   0.694724     0.00166528
      357           0.500000   0.195980   0.695980     0.00166528
      358           0.500000   0.197236   0.697236     0.00166528
      359           0.500000   0.198492   0.698492     0.00166528
      360           0.500000   0.199749   0.699749     0.00166528
      361           0.500000   0.201005   0.701005     0.00166528
      362           0.500000   0.202261   0.702261     0.00166528
      363           0.500000   0.203518   0.703518     0.00166528
      364           0.500000   0.204774   0.704774     0.00166528
      365           0.500000   0.206030   0.706030     0.00166528
      366           0.500000   0.207286   0.707286     0.00166528
      367           0.500000   0.208543   0.708543     0.00166528
      368           0.500000   0.209799   0.709799     0.00166528
      369           0.500000   0.211055   0.711055     0.00166528
      370           0.500000   0.212312   0.712312     0.00166528
      371           0.500000   0.213568   0.713568     0.00166528
      372           0.500000   0.214824   0.714824     0.00166528
      373           0.500000   0.216080   0.716080     0.00166528
      374           0.500000   0.217337   0.717337     0.00166528
      375           0.500000   0.218593   0.718593     0.00166528
      376           0.500000   0.219849   0.719849     0.00166528
      377           0.500000   0.221106   0.721106     0.00166528
      378           0.500000   0.222362   0.722362     0.00166528
      379           0.500000   0.223618   0.723618     0.00166528
      380           0.500000   0.224874   0.724874     0.00166528
      381           0.500000   0.226131   0.726131     0.00166528
      382           0.500000   0.227387   0.727387     0.00166528
      383           0.500000   0.228643   0.728643     0.00166528
      384           0.500000   0.229899   0.729899     0.00166528
      385           0.500000   0.231156   0.731156     0.00166528
      386           0.500000   0.232412   0.732412     0.00166528
      387           0.500000   0.233668   0.733668     0.00166528
      388           0.500000   0.234925   0.734925     0.00166528
      389           0.500000   0.236181   0.736181     0.00166528
      390           0.500000   0.237437   0.737437     0.00166528
      391           0.500000   0.238693   0.738693     0.00166528
      392           0.500000   0.239950   0.739950     0.00166528
      393           0.500000   0.241206   0.741206     0.00166528
      394           0.500000   0.242462   0.742462     0.00166528
      395           0.500000   0.243719   0.743719     0.00166528
      396           0.500000   0.244975   0.744975     0.00166528
      397           0.500000   0.246231   0.746231     0.00166528
      398           0.500000   0.247487   0.747487     0.00166528
      399           0.500000   0.248744   0.748744     0.00166528
      400           0.500000   0.250000   0.750000     0.00166528
      401           0.500000   0.250000   0.750000     0.00166528
      402           0.499372   0.250628   0.750000     0.00166528
      403           0.498744   0.251256   0.750000     0.00166528
      404           0.498116   0.251884   0.750000     0.00166528
      405           0.497487   0.252513   0.750000     0.00166528
      406           0.496859   0.253141   0.750000     0.00166528
      407           0.496231   0.253769   0.750000     0.00166528
      408           0.495603   0.254397   0.750000     0.00166528
      409           0.494975   0.255025   0.750000     0.00166528
      410           0.494347   0.255653   0.750000     0.00166528
      411           0.493719   0.256281   0.750000     0.00166528
      412           0.493090   0.256910   0.750000     0.00166528
      413           0.492462   0.257538   0.750000     0.00166528
      414           0.491834   0.258166   0.750000     0.00166528
      415           0.491206   0.258794   0.750000     0.00166528
      416           0.490578   0.259422   0.750000     0.00166528
      417           0.489950   0.260050   0.750000     0.00166528
      418           0.489322   0.260678   0.750000     0.00166528
      419           0.488693   0.261307   0.750000     0.00166528
      420           0.488065   0.261935   0.750000     0.00166528
      421           0.487437   0.262563   0.750000     0.00166528
      422           0.486809   0.263191   0.750000     0.00166528
      423           0.486181   0.263819   0.750000     0.00166528
      424           0.485553   0.264447   0.750000     0.00166528
      425           0.484925   0.265075   0.750000     0.00166528
      426           0.484296   0.265704   0.750000     0.00166528
      427           0.483668   0.266332   0.750000     0.00166528
      428           0.483040   0.266960   0.750000     0.00166528
      429           0.482412   0.267588   0.750000     0.00166528
      430           0.481784   0.268216   0.750000     0.00166528
      431           0.481156   0.268844   0.750000     0.00166528
      432           0.480528   0.269472   0.750000     0.00166528
      433           0.479899   0.270101   0.750000     0.00166528
      434           0.479271   0.270729   0.750000     0.00166528
      435           0.478643   0.271357   0.750000     0.00166528
      436           0.478015   0.271985   0.750000     0.00166528
      437           0.477387   0.272613   0.750000     0.00166528
      438           0.476759   0.273241   0.750000     0.00166528
      439           0.476131   0.273869   0.750000     0.00166528
      440           0.475503   0.274497   0.750000     0.00166528
      441           0.474874   0.275126   0.750000     0.00166528
      442           0.474246   0.275754   0.750000     0.00166528
      443           0.473618   0.276382   0.750000     0.00166528
      444           0.472990   0.277010   0.750000     0.00166528
      445           0.472362   0.277638   0.750000     0.00166528
      446           0.471734   0.278266   0.750000     0.00166528
      447           0.471106   0.278894   0.750000     0.00166528
      448           0.470477   0.279523   0.750000     0.00166528
      449           0.469849   0.280151   0.750000     0.00166528
      450           0.469221   0.280779   0.750000     0.00166528
      451           0.468593   0.281407   0.750000     0.00166528
      452           0.467965   0.282035   0.750000     0.00166528
      453           0.467337   0.282663   0.750000     0.00166528
      454           0.466709   0.283291   0.750000     0.00166528
      455           0.466080   0.283920   0.750000     0.00166528
      456           0.465452   0.284548   0.750000     0.00166528
      457           0.464824   0.285176   0.750000     0.00166528
      458           0.464196   0.285804   0.750000     0.00166528
      459           0.463568   0.286432   0.750000     0.00166528
      460           0.462940   0.287060   0.750000     0.00166528
      461           0.462312   0.287688   0.750000     0.00166528
      462           0.461683   0.288317   0.750000     0.00166528
      463           0.461055   0.288945   0.750000     0.00166528
      464           0.460427   0.289573   0.750000     0.00166528
      465           0.459799   0.290201   0.750000     0.00166528
      466           0.459171   0.290829   0.750000     0.00166528
      467           0.458543   0.291457   0.750000     0.00166528
      468           0.457915   0.292085   0.750000     0.00166528
      469           0.457286   0.292714   0.750000     0.00166528
      470           0.456658   0.293342   0.750000     0.00166528
      471           0.456030   0.293970   0.750000     0.00166528
      472           0.455402   0.294598   0.750000     0.00166528
      473           0.454774   0.295226   0.750000     0.00166528
      474           0.454146   0.295854   0.750000     0.00166528
      475           0.453518   0.296482   0.750000     0.00166528
      476           0.452889   0.297111   0.750000     0.00166528
      477           0.452261   0.297739   0.750000     0.00166528
      478           0.451633   0.298367   0.750000     0.00166528
      479           0.451005   0.298995   0.750000     0.00166528
      480           0.450377   0.299623   0.750000     0.00166528
      481           0.449749   0.300251   0.750000     0.00166528
      482           0.449121   0.300879   0.750000     0.00166528
      483           0.448492   0.301508   0.750000     0.00166528
      484           0.447864   0.302136   0.750000     0.00166528
      485           0.447236   0.302764   0.750000     0.00166528
      486           0.446608   0.303392   0.750000     0.00166528
      487           0.445980   0.304020   0.750000     0.00166528
      488           0.445352   0.304648   0.750000     0.00166528
      489           0.444724   0.305276   0.750000     0.00166528
      490           0.444095   0.305905   0.750000     0.00166528
      491           0.443467   0.306533   0.750000     0.00166528
      492           0.442839   0.307161   0.750000     0.00166528
      493           0.442211   0.307789   0.750000     0.00166528
      494           0.441583   0.308417   0.750000     0.00166528
      495           0.440955   0.309045   0.750000     0.00166528
      496           0.440327   0.309673   0.750000     0.00166528
      497           0.439698   0.310302   0.750000     0.00166528
      498           0.439070   0.310930   0.750000     0.00166528
      499           0.438442   0.311558   0.750000     0.00166528
      500           0.437814   0.312186   0.750000     0.00166528
      501           0.437186   0.312814   0.750000     0.00166528
      502           0.436558   0.313442   0.750000     0.00166528
      503           0.435930   0.314070   0.750000     0.00166528
      504           0.435302   0.314698   0.750000     0.00166528
      505           0.434673   0.315327   0.750000     0.00166528
      506           0.434045   0.315955   0.750000     0.00166528
      507           0.433417   0.316583   0.750000     0.00166528
      508           0.432789   0.317211   0.750000     0.00166528
      509           0.432161   0.317839   0.750000     0.00166528
      510           0.431533   0.318467   0.750000     0.00166528
      511           0.430905   0.319095   0.750000     0.00166528
      512           0.430276   0.319724   0.750000     0.00166528
      513           0.429648   0.320352   0.750000     0.00166528
      514           0.429020   0.320980   0.750000     0.00166528
      515           0.428392   0.321608   0.750000     0.00166528
      516           0.427764   0.322236   0.750000     0.00166528
      517           0.427136   0.322864   0.750000     0.00166528
      518           0.426508   0.323492   0.750000     0.00166528
      519           0.425879   0.324121   0.750000     0.00166528
      520           0.425251   0.324749   0.750000     0.00166528
      521           0.424623   0.325377   0.750000     0.00166528
      522           0.423995   0.326005   0.750000     0.00166528
      523           0.423367   0.326633   0.750000     0.00166528
      524           0.422739   0.327261   0.750000     0.00166528
      525           0.422111   0.327889   0.750000     0.00166528
      526           0.421482   0.328518   0.750000     0.00166528
      527           0.420854   0.329146   0.750000     0.00166528
      528           0.420226   0.329774   0.750000     0.00166528
      529           0.419598   0.330402   0.750000     0.00166528
      530           0.418970   0.331030   0.750000     0.00166528
      531           0.418342   0.331658   0.750000     0.00166528
      532           0.417714   0.332286   0.750000     0.00166528
      533           0.417085   0.332915   0.750000     0.00166528
      534           0.416457   0.333543   0.750000     0.00166528
      535           0.415829   0.334171   0.750000     0.00166528
      536           0.415201   0.334799   0.750000     0.00166528
      537           0.414573   0.335427   0.750000     0.00166528
      538           0.413945   0.336055   0.750000     0.00166528
      539           0.413317   0.336683   0.750000     0.00166528
      540           0.412688   0.337312   0.750000     0.00166528
      541           0.412060   0.337940   0.750000     0.00166528
      542           0.411432   0.338568   0.750000     0.00166528
      543           0.410804   0.339196   0.750000     0.00166528
      544           0.410176   0.339824   0.750000     0.00166528
      545           0.409548   0.340452   0.750000     0.00166528
      546           0.408920   0.341080   0.750000     0.00166528
      547           0.408291   0.341709   0.750000     0.00166528
      548           0.407663   0.342337   0.750000     0.00166528
      549           0.407035   0.342965   0.750000     0.00166528
      550           0.406407   0.343593   0.750000     0.00166528
      551           0.405779   0.344221   0.750000     0.00166528
      552           0.405151   0.344849   0.750000     0.00166528
      553           0.404523   0.345477   0.750000     0.00166528
      554           0.403894   0.346106   0.750000     0.00166528
      555           0.403266   0.346734   0.750000     0.00166528
      556           0.402638   0.347362   0.750000     0.00166528
      557           0.402010   0.347990   0.750000     0.00166528
      558           0.401382   0.348618   0.750000     0.00166528
      559           0.400754   0.349246   0.750000     0.00166528
      560           0.400126   0.349874   0.750000     0.00166528
      561           0.399497   0.350503   0.750000     0.00166528
      562           0.398869   0.351131   0.750000     0.00166528
      563           0.398241   0.351759   0.750000     0.00166528
      564           0.397613   0.352387   0.750000     0.00166528
      565           0.396985   0.353015   0.750000     0.00166528
      566           0.396357   0.353643   0.750000     0.00166528
      567           0.395729   0.354271   0.750000     0.00166528
      568           0.395101   0.354899   0.750000     0.00166528
      569           0.394472   0.355528   0.750000     0.00166528
      570           0.393844   0.356156   0.750000     0.00166528
      571           0.393216   0.356784   0.750000     0.00166528
      572           0.392588   0.357412   0.750000     0.00166528
      573           0.391960   0.358040   0.750000     0.00166528
      574           0.391332   0.358668   0.750000     0.00166528
      575           0.390704   0.359296   0.750000     0.00166528
      576           0.390075   0.359925   0.750000     0.00166528
      577           0.389447   0.360553   0.750000     0.00166528
      578           0.388819   0.361181   0.750000     0.00166528
      579           0.388191   0.361809   0.750000     0.00166528
      580           0.387563   0.362437   0.750000     0.00166528
      581           0.386935   0.363065   0.750000     0.00166528
      582           0.386307   0.363693   0.750000     0.00166528
      583           0.385678   0.364322   0.750000     0.00166528
      584           0.385050   0.364950   0.750000     0.00166528
      585           0.384422   0.365578   0.750000     0.00166528
      586           0.383794   0.366206   0.750000     0.00166528
      587           0.383166   0.366834   0.750000     0.00166528
      588           0.382538   0.367462   0.750000     0.00166528
      589           0.381910   0.368090   0.750000     0.00166528
      590           0.381281   0.368719   0.750000     0.00166528
      591           0.380653   0.369347   0.750000     0.00166528
      592           0.380025   0.369975   0.750000     0.00166528
      593           0.379397   0.370603   0.750000     0.00166528
      594           0.378769   0.371231   0.750000     0.00166528
      595           0.378141   0.371859   0.750000     0.00166528
      596           0.377513   0.372487   0.750000     0.00166528
      597           0.376884   0.373116   0.750000     0.00166528
      598           0.376256   0.373744   0.750000     0.00166528
      599           0.375628   0.374372   0.750000     0.00166528
      600           0.375000   0.375000   0.750000     0.00166528
      601           0.500000   0.500000   0.500000     0.00083264
--------------------------------------------------------------------------------


********************************************************************************
*  General input information                                                   *
********************************************************************************

  Species output for all configurations : 

--------------------------------------------------------------------------------
  Species    Type    Atomic    Atomic    Charge       Radii (Angs)     Library
                     Number     Mass       (e)     Cova   Ionic  VDW   Symbol
--------------------------------------------------------------------------------
    Zn       Core       30      65.39   2.000000   1.450  0.000  2.160          
    S        Core       16      32.07   1.357000   1.020  0.000  1.700          
    S        Shell      16       0.00  -3.357000   1.020  0.000  0.000          
--------------------------------------------------------------------------------


  Lattice summation method               =    Ewald          (3-D)
                                         =    Parry          (2-D)
                                         =    Saunders et al (1-D)
  Accuracy factor for lattice sums       =   12.000


  Time limit = Infinity

  Maximum range for interatomic potentials =    100000.000000 Angstroms

  General interatomic potentials :

--------------------------------------------------------------------------------
Atom  Types   Potential      Parameter       Value         Units   Cutoffs(Ang)
  1     2                                                            Min /  Max 
--------------------------------------------------------------------------------
Zn   c S    s Buckingham    Buckingham A     213.20000    eV        0.000 15.000
                            Buckingham rho  0.47500000    Ang       
                            Buckingham C     0.0000000    eV*Ang^6  
--------------------------------------------------------------------------------
S    s S    s Buckingham    Buckingham A     11413.090    eV        0.000 15.000
                            Buckingham rho  0.15300000    Ang       
                            Buckingham C     0.0000000    eV*Ang^6  
--------------------------------------------------------------------------------
Zn   c S    s Lennard       Lennard-Jones A  664.35000    eV*Ang^m  0.000 15.000
                            Lennard-Jones B  10.540000    eV*Ang^n  
                            Exponent m         9          None
                            Exponent n         6          None
--------------------------------------------------------------------------------
S    s S    s Lennard       Lennard-Jones A  0.0000000    eV*Ang^m  0.000 15.000
                            Lennard-Jones B  129.18000    eV*Ang^n  
                            Exponent m         9          None
                            Exponent n         6          None
--------------------------------------------------------------------------------
S    c S    s Spring (c-s)  Spring k 2       27.690000    eV*Ang^-2 0.000  0.800
                            Spring k 4       0.0000000    eV*Ang^-4 
--------------------------------------------------------------------------------

  General Three-body potentials :

--------------------------------------------------------------------------------
  Atoms       Potential      Parameter       Value         Units   Cutoffs(Ang)
  1 / 2 / 3                                                          Min /  Max 
--------------------------------------------------------------------------------
Zn    core    Harmonic      Three-body cnst 0.77800000    eV*rad^-2 0.000  2.400
S     shel                  Three-body angl  109.47000    degrees   0.000  2.400
S     shel                  Three-body k4    0.0000000    eV*rad^-4 0.000  3.900
                            Three-body k3    0.0000000    eV*rad^-3 
--------------------------------------------------------------------------------

********************************************************************************
*  Output for configuration   1                                                *
********************************************************************************


  Components of energy : 

--------------------------------------------------------------------------------
  Interatomic potentials     =           6.80240952 eV    
  Three-body potentials      =           0.00000000 eV    
  Monopole - monopole (real) =          -5.44400832 eV    
  Monopole - monopole (recip)=         -34.57509260 eV    
  Monopole - monopole (total)=         -40.01910091 eV    
--------------------------------------------------------------------------------
  Total lattice energy       =         -33.21669139 eV    
--------------------------------------------------------------------------------
  Total lattice energy       =           -3204.9030 kJ/(mole unit cells)
--------------------------------------------------------------------------------

  Born effective charge tensors : 

-------------------------------------------------------------------------------
  Atom             x           y             z
-------------------------------------------------------------------------------
    1 Zn    x       1.8665     -0.0000     -0.0000
            y      -0.0000      1.8665     -0.0000
            z      -0.0000     -0.0000      1.8665
-------------------------------------------------------------------------------
    2 S     x      -1.8665      0.0000      0.0000
            y       0.0000     -1.8665      0.0000
            z       0.0000      0.0000     -1.8665
-------------------------------------------------------------------------------




  Elastic Constant Matrix: (Units=GPa)

-------------------------------------------------------------------------------
  Indices      1         2         3         4         5         6    
-------------------------------------------------------------------------------
       1    123.0651   55.2098   48.1106   10.0397    0.0000    0.0000
       2     55.2098  123.0651   48.1106  -10.0397    0.0000    0.0000
       3     48.1106   48.1106  130.1643    0.0000    0.0000    0.0000
       4     10.0397  -10.0397    0.0000   26.8285    0.0000    0.0000
       5      0.0000    0.0000    0.0000    0.0000   26.8285   10.0397
       6      0.0000    0.0000    0.0000    0.0000   10.0397   33.9277
-------------------------------------------------------------------------------

  Elastic Constant Tensor Eigenvalues: (Units=GPa)

-------------------------------------------------------------------------------
     1 =    19.7293     2 =    22.3941     3 =    41.0268
     4 =    72.2897     5 =    82.0537     6 =   226.3856
-------------------------------------------------------------------------------


  Elastic Compliance Matrix: (Units=1/GPa)

-------------------------------------------------------------------------------
  Indices      1         2         3         4         5         6    
-------------------------------------------------------------------------------
       1    0.011790 -0.004783 -0.002590 -0.006202 -0.000000 -0.000000
       2   -0.004783  0.011790 -0.002590  0.006202 -0.000000 -0.000000
       3   -0.002590 -0.002590  0.009597 -0.000000 -0.000000  0.000000
       4   -0.006202  0.006202 -0.000000  0.041915 -0.000000 -0.000000
       5   -0.000000 -0.000000 -0.000000 -0.000000  0.041915 -0.012403
       6   -0.000000 -0.000000  0.000000 -0.000000 -0.012403  0.033145
-------------------------------------------------------------------------------

  Mechanical properties :

-------------------------------------------------------------------------------
  Convention :                    Reuss         Voigt         Hill
-------------------------------------------------------------------------------
  Bulk  Modulus (GPa)     =      75.46186      75.46186      75.46186
  Shear Modulus (GPa)     =      28.65415      32.50784      30.58099
-------------------------------------------------------------------------------
  Velocity S-wave (km/s)  =       2.67292       2.84699       2.76133
  Velocity P-wave (km/s)  =       5.32366       5.44266       5.38349
-------------------------------------------------------------------------------
  Compressibility (1/GPa) =    0.01325173
-------------------------------------------------------------------------------
  Stress axis :                     x             y             z
-------------------------------------------------------------------------------
  Youngs Moduli (GPa)     =      84.81896      84.81896     104.19731
-------------------------------------------------------------------------------
  Poissons Ratio (x)      =                     0.40566       0.26987
  Poissons Ratio (y)      =       0.40566                     0.26987
  Poissons Ratio (z)      =       0.21968       0.21968
-------------------------------------------------------------------------------


  Piezoelectric Strain Matrix: (Units=C/m**2)

-------------------------------------------------------------------------------
  Indices      1         2         3         4         5         6    
-------------------------------------------------------------------------------
       x     0.00000   0.00000   0.00000   0.00000  -1.40364  -1.98505
       y    -1.98505   1.98505   0.00000  -1.40364   0.00000   0.00000
       z    -1.40364  -1.40364   2.80728   0.00000   0.00000   0.00000
-------------------------------------------------------------------------------


  Piezoelectric Stress Matrix: (Units=10**-11 C/N)

-------------------------------------------------------------------------------
  Indices      1         2         3         4         5         6    
-------------------------------------------------------------------------------
       x     0.00000   0.00000  -0.00000   0.00000  -3.42127  -4.83841
       y    -2.41920   2.41920  -0.00000  -3.42127   0.00000   0.00000
       z    -1.71064  -1.71064   3.42127   0.00000   0.00000   0.00000
-------------------------------------------------------------------------------


  Static dielectric constant tensor : 

-------------------------------------------------------------------------------
              x         y         z
-------------------------------------------------------------------------------
       x     6.52062  -0.00000  -0.00000
       y    -0.00000   6.52062  -0.00000
       z    -0.00000  -0.00000   6.52062
--------------------------------------------------------------------------------

  High frequency dielectric constant tensor : 

-------------------------------------------------------------------------------
              x         y         z
-------------------------------------------------------------------------------
       x     3.32399  -0.00000  -0.00000
       y    -0.00000   3.32399  -0.00000
       z    -0.00000  -0.00000   3.32399
-------------------------------------------------------------------------------

  Static refractive indices : 

-------------------------------------------------------------------------------
    1 =    2.55355      2 =    2.55355      3 =    2.55355
-------------------------------------------------------------------------------

  High frequency refractive indices : 

-------------------------------------------------------------------------------
    1 =    1.82318      2 =    1.82318      3 =    1.82318
-------------------------------------------------------------------------------


  Phonon Calculation : 

  K direction for n-a correction at gamma =  1.00000  1.00000  1.00000

  Number of k points for this configuration =      601

--------------------------------------------------------------------------------
  K point      1 =   0.000000  0.000000  0.000000  Weight =    0.002
--------------------------------------------------------------------------------

  Frequencies (cm-1) [NB: Negative implies an imaginary mode]:

   -0.00   -0.00    0.00  248.52  248.52  348.08


--------------------------------------------------------------------------------
  K point      2 =   0.002513  0.000000  0.002513  Weight =    0.002
--------------------------------------------------------------------------------

  Frequencies (cm-1) [NB: Negative implies an imaginary mode]:

    0.98    0.98    1.54  248.52  248.52  348.08


--------------------------------------------------------------------------------
  K point      3 =   0.005025  0.000000  0.005025  Weight =    0.002
--------------------------------------------------------------------------------

  Frequencies (cm-1) [NB: Negative implies an imaginary mode]:

    1.97    1.97    3.08  248.52  248.52  348.08


--------------------------------------------------------------------------------
  K point      4 =   0.007538  0.000000  0.007538  Weight =    0.002
--------------------------------------------------------------------------------

  Frequencies (cm-1) [NB: Negative implies an imaginary mode]:

    2.95    2.95    4.62  248.52  248.52  348.07


--------------------------------------------------------------------------------
  K point      5 =   0.010050  0.000000  0.010050  Weight =    0.002
--------------------------------------------------------------------------------

  Frequencies (cm-1) [NB: Negative implies an imaginary mode]:

    3.94    3.94    6.16  248.52  248.52  348.06


--------------------------------------------------------------------------------
  K point      6 =   0.012563  0.000000  0.012563  Weight =    0.002
--------------------------------------------------------------------------------

  Frequencies (cm-1) [NB: Negative implies an imaginary mode]:

    4.92    4.92    7.70  248.52  248.52  348.04


--------------------------------------------------------------------------------
  K point      7 =   0.015075  0.000000  0.015075  Weight =    0.002
--------------------------------------------------------------------------------

  Frequencies (cm-1) [NB: Negative implies an imaginary mode]:

    5.90    5.90    9.24  248.51  248.51  348.02


--------------------------------------------------------------------------------
  K point      8 =   0.017588  0.000000  0.017588  Weight =    0.002
--------------------------------------------------------------------------------

  Frequencies (cm-1) [NB: Negative implies an imaginary mode]:

    6.89    6.89   10.78  248.51  248.51  348.00


--------------------------------------------------------------------------------
  K point      9 =   0.020101  0.000000  0.020101  Weight =    0.002
--------------------------------------------------------------------------------

  Frequencies (cm-1) [NB: Negative implies an imaginary mode]:

    7.87    7.87   12.32  248.50  248.50  347.98


--------------------------------------------------------------------------------
  K point     10 =   0.022613  0.000000  0.022613  Weight =    0.002
--------------------------------------------------------------------------------

  Frequencies (cm-1) [NB: Negative implies an imaginary mode]:

    8.85    8.85   13.86  248.50  248.50  347.95


--------------------------------------------------------------------------------
  K point     11 =   0.025126  0.000000  0.025126  Weight =    0.002
--------------------------------------------------------------------------------

  Frequencies (cm-1) [NB: Negative implies an imaginary mode]:

    9.83    9.83   15.40  248.49  248.49  347.92


--------------------------------------------------------------------------------
  K point     12 =   0.027638  0.000000  0.027638  Weight =    0.002
--------------------------------------------------------------------------------

  Frequencies (cm-1) [NB: Negative implies an imaginary mode]:

   10.81   10.81   16.94  248.49  248.49  347.88


--------------------------------------------------------------------------------
  K point     13 =   0.030151  0.000000  0.030151  Weight =    0.002
--------------------------------------------------------------------------------

  Frequencies (cm-1) [NB: Negative implies an imaginary mode]:

   11.79   11.79   18.47  248.48  248.48  347.84


--------------------------------------------------------------------------------
  K point     14 =   0.032663  0.000000  0.032663  Weight =    0.002
--------------------------------------------------------------------------------

  Frequencies (cm-1) [NB: Negative implies an imaginary mode]:

   12.77   12.77   20.01  248.47  248.47  347.80


--------------------------------------------------------------------------------
  K point     15 =   0.035176  0.000000  0.035176  Weight =    0.002
--------------------------------------------------------------------------------

  Frequencies (cm-1) [NB: Negative implies an imaginary mode]:

   13.74   13.74   21.55  248.47  248.47  347.76


--------------------------------------------------------------------------------
  K point     16 =   0.037688  0.000000  0.037688  Weight =    0.002
--------------------------------------------------------------------------------

  Frequencies (cm-1) [NB: Negative implies an imaginary mode]:

   14.72   14.72   23.09  248.46  248.46  347.71


--------------------------------------------------------------------------------
  K point     17 =   0.040201  0.000000  0.040201  Weight =    0.002
--------------------------------------------------------------------------------

  Frequencies (cm-1) [NB: Negative implies an imaginary mode]:

   15.69   15.69   24.62  248.45  248.45  347.66


--------------------------------------------------------------------------------
  K point     18 =   0.042714  0.000000  0.042714  Weight =    0.002
--------------------------------------------------------------------------------

  Frequencies (cm-1) [NB: Negative implies an imaginary mode]:

   16.67   16.67   26.16  248.44  248.44  347.60


--------------------------------------------------------------------------------
  K point     19 =   0.045226  0.000000  0.045226  Weight =    0.002
--------------------------------------------------------------------------------

  Frequencies (cm-1) [NB: Negative implies an imaginary mode]:

   17.64   17.64   27.70  248.43  248.43  347.54


--------------------------------------------------------------------------------
  K point     20 =   0.047739  0.000000  0.047739  Weight =    0.002
--------------------------------------------------------------------------------

  Frequencies (cm-1) [NB: Negative implies an imaginary mode]:

   18.61   18.61   29.23  248.42  248.42  347.48


--------------------------------------------------------------------------------
  K point     21 =   0.050251  0.000000  0.050251  Weight =    0.002
--------------------------------------------------------------------------------

  Frequencies (cm-1) [NB: Negative implies an imaginary mode]:

   19.58   19.58   30.77  248.41  248.41  347.42


--------------------------------------------------------------------------------
  K point     22 =   0.052764  0.000000  0.052764  Weight =    0.002
--------------------------------------------------------------------------------

  Frequencies (cm-1) [NB: Negative implies an imaginary mode]:

   20.54   20.54   32.30  248.39  248.39  347.35


--------------------------------------------------------------------------------
  K point     23 =   0.055276  0.000000  0.055276  Weight =    0.002
--------------------------------------------------------------------------------

  Frequencies (cm-1) [NB: Negative implies an imaginary mode]:

   21.51   21.51   33.84  248.38  248.38  347.28


--------------------------------------------------------------------------------
  K point     24 =   0.057789  0.000000  0.057789  Weight =    0.002
--------------------------------------------------------------------------------

  Frequencies (cm-1) [NB: Negative implies an imaginary mode]:

   22.47   22.47   35.37  248.37  248.37  347.20


--------------------------------------------------------------------------------
  K point     25 =   0.060302  0.000000  0.060302  Weight =    0.002
--------------------------------------------------------------------------------

  Frequencies (cm-1) [NB: Negative implies an imaginary mode]:

   23.43   23.43   36.91  248.36  248.36  347.13


--------------------------------------------------------------------------------
  K point     26 =   0.062814  0.000000  0.062814  Weight =    0.002
--------------------------------------------------------------------------------

  Frequencies (cm-1) [NB: Negative implies an imaginary mode]:

   24.39   24.39   38.44  248.34  248.34  347.04


--------------------------------------------------------------------------------
  K point     27 =   0.065327  0.000000  0.065327  Weight =    0.002
--------------------------------------------------------------------------------

  Frequencies (cm-1) [NB: Negative implies an imaginary mode]:

   25.35   25.35   39.97  248.33  248.33  346.96


--------------------------------------------------------------------------------
  K point     28 =   0.067839  0.000000  0.067839  Weight =    0.002
--------------------------------------------------------------------------------

  Frequencies (cm-1) [NB: Negative implies an imaginary mode]:

   26.30   26.30   41.50  248.31  248.31  346.87


--------------------------------------------------------------------------------
  K point     29 =   0.070352  0.000000  0.070352  Weight =    0.002
--------------------------------------------------------------------------------

  Frequencies (cm-1) [NB: Negative implies an imaginary mode]:

   27.25   27.25   43.04  248.29  248.29  346.78


--------------------------------------------------------------------------------
  K point     30 =   0.072864  0.000000  0.072864  Weight =    0.002
--------------------------------------------------------------------------------

  Frequencies (cm-1) [NB: Negative implies an imaginary mode]:

   28.20   28.20   44.57  248.28  248.28  346.69


--------------------------------------------------------------------------------
  K point     31 =   0.075377  0.000000  0.075377  Weight =    0.002
--------------------------------------------------------------------------------

  Frequencies (cm-1) [NB: Negative implies an imaginary mode]:

   29.15   29.15   46.10  248.26  248.26  346.59


--------------------------------------------------------------------------------
  K point     32 =   0.077889  0.000000  0.077889  Weight =    0.002
--------------------------------------------------------------------------------

  Frequencies (cm-1) [NB: Negative implies an imaginary mode]:

   30.09   30.09   47.63  248.24  248.24  346.49


--------------------------------------------------------------------------------
  K point     33 =   0.080402  0.000000  0.080402  Weight =    0.002
--------------------------------------------------------------------------------

  Frequencies (cm-1) [NB: Negative implies an imaginary mode]:

   31.04   31.04   49.15  248.23  248.23  346.38


--------------------------------------------------------------------------------
  K point     34 =   0.082915  0.000000  0.082915  Weight =    0.002
--------------------------------------------------------------------------------

  Frequencies (cm-1) [NB: Negative implies an imaginary mode]:

   31.98   31.98   50.68  248.21  248.21  346.27


--------------------------------------------------------------------------------
  K point     35 =   0.085427  0.000000  0.085427  Weight =    0.002
--------------------------------------------------------------------------------

  Frequencies (cm-1) [NB: Negative implies an imaginary mode]:

   32.91   32.91   52.21  248.19  248.19  346.16


--------------------------------------------------------------------------------
  K point     36 =   0.087940  0.000000  0.087940  Weight =    0.002
--------------------------------------------------------------------------------

  Frequencies (cm-1) [NB: Negative implies an imaginary mode]:

   33.85   33.85   53.73  248.17  248.17  346.05


--------------------------------------------------------------------------------
  K point     37 =   0.090452  0.000000  0.090452  Weight =    0.002
--------------------------------------------------------------------------------

  Frequencies (cm-1) [NB: Negative implies an imaginary mode]:

   34.78   34.78   55.26  248.15  248.15  345.93


--------------------------------------------------------------------------------
  K point     38 =   0.092965  0.000000  0.092965  Weight =    0.002
--------------------------------------------------------------------------------

  Frequencies (cm-1) [NB: Negative implies an imaginary mode]:

   35.71   35.71   56.78  248.13  248.13  345.81


--------------------------------------------------------------------------------
  K point     39 =   0.095477  0.000000  0.095477  Weight =    0.002
--------------------------------------------------------------------------------

  Frequencies (cm-1) [NB: Negative implies an imaginary mode]:

   36.63   36.63   58.31  248.11  248.11  345.68


--------------------------------------------------------------------------------
  K point     40 =   0.097990  0.000000  0.097990  Weight =    0.002
--------------------------------------------------------------------------------

  Frequencies (cm-1) [NB: Negative implies an imaginary mode]:

   37.55   37.55   59.83  248.08  248.08  345.55


--------------------------------------------------------------------------------
  K point     41 =   0.100503  0.000000  0.100503  Weight =    0.002
--------------------------------------------------------------------------------

  Frequencies (cm-1) [NB: Negative implies an imaginary mode]:

   38.47   38.47   61.35  248.06  248.06  345.42


--------------------------------------------------------------------------------
  K point     42 =   0.103015  0.000000  0.103015  Weight =    0.002
--------------------------------------------------------------------------------

  Frequencies (cm-1) [NB: Negative implies an imaginary mode]:

   39.39   39.39   62.87  248.04  248.04  345.29


--------------------------------------------------------------------------------
  K point     43 =   0.105528  0.000000  0.105528  Weight =    0.002
--------------------------------------------------------------------------------

  Frequencies (cm-1) [NB: Negative implies an imaginary mode]:

   40.30   40.30   64.39  248.01  248.01  345.15


--------------------------------------------------------------------------------
  K point     44 =   0.108040  0.000000  0.108040  Weight =    0.002
--------------------------------------------------------------------------------

  Frequencies (cm-1) [NB: Negative implies an imaginary mode]:

   41.21   41.21   65.91  247.99  247.99  345.01


--------------------------------------------------------------------------------
  K point     45 =   0.110553  0.000000  0.110553  Weight =    0.002
--------------------------------------------------------------------------------

  Frequencies (cm-1) [NB: Negative implies an imaginary mode]:

   42.11   42.11   67.43  247.97  247.97  344.86


--------------------------------------------------------------------------------
  K point     46 =   0.113065  0.000000  0.113065  Weight =    0.002
--------------------------------------------------------------------------------

  Frequencies (cm-1) [NB: Negative implies an imaginary mode]:

   43.01   43.01   68.95  247.94  247.94  344.71


--------------------------------------------------------------------------------
  K point     47 =   0.115578  0.000000  0.115578  Weight =    0.002
--------------------------------------------------------------------------------

  Frequencies (cm-1) [NB: Negative implies an imaginary mode]:

   43.91   43.91   70.46  247.92  247.92  344.56


--------------------------------------------------------------------------------
  K point     48 =   0.118090  0.000000  0.118090  Weight =    0.002
--------------------------------------------------------------------------------

  Frequencies (cm-1) [NB: Negative implies an imaginary mode]:

   44.81   44.81   71.98  247.89  247.89  344.40


--------------------------------------------------------------------------------
  K point     49 =   0.120603  0.000000  0.120603  Weight =    0.002
--------------------------------------------------------------------------------

  Frequencies (cm-1) [NB: Negative implies an imaginary mode]:

   45.70   45.70   73.49  247.86  247.86  344.25


--------------------------------------------------------------------------------
  K point     50 =   0.123116  0.000000  0.123116  Weight =    0.002
--------------------------------------------------------------------------------

  Frequencies (cm-1) [NB: Negative implies an imaginary mode]:

   46.59   46.59   75.00  247.84  247.84  344.08


--------------------------------------------------------------------------------
  K point     51 =   0.125628  0.000000  0.125628  Weight =    0.002
--------------------------------------------------------------------------------

  Frequencies (cm-1) [NB: Negative implies an imaginary mode]:

   47.47   47.47   76.51  247.81  247.81  343.92


--------------------------------------------------------------------------------
  K point     52 =   0.128141  0.000000  0.128141  Weight =    0.002
--------------------------------------------------------------------------------

  Frequencies (cm-1) [NB: Negative implies an imaginary mode]:

   48.35   48.35   78.02  247.78  247.78  343.75


--------------------------------------------------------------------------------
  K point     53 =   0.130653  0.000000  0.130653  Weight =    0.002
--------------------------------------------------------------------------------

  Frequencies (cm-1) [NB: Negative implies an imaginary mode]:

   49.22   49.22   79.53  247.75  247.75  343.58


--------------------------------------------------------------------------------
  K point     54 =   0.133166  0.000000  0.133166  Weight =    0.002
--------------------------------------------------------------------------------

  Frequencies (cm-1) [NB: Negative implies an imaginary mode]:

   50.10   50.10   81.04  247.72  247.72  343.40


--------------------------------------------------------------------------------
  K point     55 =   0.135678  0.000000  0.135678  Weight =    0.002
--------------------------------------------------------------------------------

  Frequencies (cm-1) [NB: Negative implies an imaginary mode]:

   50.96   50.96   82.55  247.69  247.69  343.22


--------------------------------------------------------------------------------
  K point     56 =   0.138191  0.000000  0.138191  Weight =    0.002
--------------------------------------------------------------------------------

  Frequencies (cm-1) [NB: Negative implies an imaginary mode]:

   51.83   51.83   84.05  247.66  247.66  343.04


--------------------------------------------------------------------------------
  K point     57 =   0.140704  0.000000  0.140704  Weight =    0.002
--------------------------------------------------------------------------------

  Frequencies (cm-1) [NB: Negative implies an imaginary mode]:

   52.69   52.69   85.55  247.63  247.63  342.85


--------------------------------------------------------------------------------
  K point     58 =   0.143216  0.000000  0.143216  Weight =    0.002
--------------------------------------------------------------------------------

  Frequencies (cm-1) [NB: Negative implies an imaginary mode]:

   53.54   53.54   87.06  247.60  247.60  342.66


--------------------------------------------------------------------------------
  K point     59 =   0.145729  0.000000  0.145729  Weight =    0.002
--------------------------------------------------------------------------------

  Frequencies (cm-1) [NB: Negative implies an imaginary mode]:

   54.39   54.39   88.56  247.57  247.57  342.47


--------------------------------------------------------------------------------
  K point     60 =   0.148241  0.000000  0.148241  Weight =    0.002
--------------------------------------------------------------------------------

  Frequencies (cm-1) [NB: Negative implies an imaginary mode]:

   55.24   55.24   90.06  247.54  247.54  342.27


--------------------------------------------------------------------------------
  K point     61 =   0.150754  0.000000  0.150754  Weight =    0.002
--------------------------------------------------------------------------------

  Frequencies (cm-1) [NB: Negative implies an imaginary mode]:

   56.08   56.08   91.55  247.51  247.51  342.07


--------------------------------------------------------------------------------
  K point     62 =   0.153266  0.000000  0.153266  Weight =    0.002
--------------------------------------------------------------------------------

  Frequencies (cm-1) [NB: Negative implies an imaginary mode]:

   56.92   56.92   93.05  247.48  247.48  341.87


--------------------------------------------------------------------------------
  K point     63 =   0.155779  0.000000  0.155779  Weight =    0.002
--------------------------------------------------------------------------------

  Frequencies (cm-1) [NB: Negative implies an imaginary mode]:

   57.75   57.75   94.55  247.44  247.44  341.66


--------------------------------------------------------------------------------
  K point     64 =   0.158291  0.000000  0.158291  Weight =    0.002
--------------------------------------------------------------------------------

  Frequencies (cm-1) [NB: Negative implies an imaginary mode]:

   58.58   58.58   96.04  247.41  247.41  341.45


--------------------------------------------------------------------------------
  K point     65 =   0.160804  0.000000  0.160804  Weight =    0.002
--------------------------------------------------------------------------------

  Frequencies (cm-1) [NB: Negative implies an imaginary mode]:

   59.40   59.40   97.53  247.38  247.38  341.24


--------------------------------------------------------------------------------
  K point     66 =   0.163317  0.000000  0.163317  Weight =    0.002
--------------------------------------------------------------------------------

  Frequencies (cm-1) [NB: Negative implies an imaginary mode]:

   60.22   60.22   99.02  247.34  247.34  341.02


--------------------------------------------------------------------------------
  K point     67 =   0.165829  0.000000  0.165829  Weight =    0.002
--------------------------------------------------------------------------------

  Frequencies (cm-1) [NB: Negative implies an imaginary mode]:

   61.04   61.04  100.51  247.31  247.31  340.80


--------------------------------------------------------------------------------
  K point     68 =   0.168342  0.000000  0.168342  Weight =    0.002
--------------------------------------------------------------------------------

  Frequencies (cm-1) [NB: Negative implies an imaginary mode]:

   61.85   61.85  102.00  247.27  247.27  340.57


--------------------------------------------------------------------------------
  K point     69 =   0.170854  0.000000  0.170854  Weight =    0.002
--------------------------------------------------------------------------------

  Frequencies (cm-1) [NB: Negative implies an imaginary mode]:

   62.65   62.65  103.48  247.24  247.24  340.34


--------------------------------------------------------------------------------
  K point     70 =   0.173367  0.000000  0.173367  Weight =    0.002
--------------------------------------------------------------------------------

  Frequencies (cm-1) [NB: Negative implies an imaginary mode]:

   63.45   63.45  104.97  247.20  247.20  340.11


--------------------------------------------------------------------------------
  K point     71 =   0.175879  0.000000  0.175879  Weight =    0.002
--------------------------------------------------------------------------------

  Frequencies (cm-1) [NB: Negative implies an imaginary mode]:

   64.25   64.25  106.45  247.16  247.16  339.88


[...]
  K point    584 =   0.385050  0.364950  0.750000  Weight =    0.002
--------------------------------------------------------------------------------

  Frequencies (cm-1) [NB: Negative implies an imaginary mode]:

  113.70  148.18  234.37  241.04  256.24  273.24


--------------------------------------------------------------------------------
  K point    585 =   0.384422  0.365578  0.750000  Weight =    0.002
--------------------------------------------------------------------------------

  Frequencies (cm-1) [NB: Negative implies an imaginary mode]:

  113.68  148.16  234.39  241.03  256.25  273.24


--------------------------------------------------------------------------------
  K point    586 =   0.383794  0.366206  0.750000  Weight =    0.002
--------------------------------------------------------------------------------

  Frequencies (cm-1) [NB: Negative implies an imaginary mode]:

  113.66  148.14  234.42  241.02  256.25  273.24


--------------------------------------------------------------------------------
  K point    587 =   0.383166  0.366834  0.750000  Weight =    0.002
--------------------------------------------------------------------------------

  Frequencies (cm-1) [NB: Negative implies an imaginary mode]:

  113.64  148.13  234.44  241.01  256.25  273.24


--------------------------------------------------------------------------------
  K point    588 =   0.382538  0.367462  0.750000  Weight =    0.002
--------------------------------------------------------------------------------

  Frequencies (cm-1) [NB: Negative implies an imaginary mode]:

  113.62  148.11  234.46  241.00  256.25  273.24


--------------------------------------------------------------------------------
  K point    589 =   0.381910  0.368090  0.750000  Weight =    0.002
--------------------------------------------------------------------------------

  Frequencies (cm-1) [NB: Negative implies an imaginary mode]:

  113.60  148.10  234.48  240.99  256.25  273.24


--------------------------------------------------------------------------------
  K point    590 =   0.381281  0.368719  0.750000  Weight =    0.002
--------------------------------------------------------------------------------

  Frequencies (cm-1) [NB: Negative implies an imaginary mode]:

  113.59  148.09  234.49  240.99  256.26  273.24


--------------------------------------------------------------------------------
  K point    591 =   0.380653  0.369347  0.750000  Weight =    0.002
--------------------------------------------------------------------------------

  Frequencies (cm-1) [NB: Negative implies an imaginary mode]:

  113.58  148.08  234.51  240.98  256.26  273.24


--------------------------------------------------------------------------------
  K point    592 =   0.380025  0.369975  0.750000  Weight =    0.002
--------------------------------------------------------------------------------

  Frequencies (cm-1) [NB: Negative implies an imaginary mode]:

  113.57  148.07  234.52  240.97  256.26  273.24


--------------------------------------------------------------------------------
  K point    593 =   0.379397  0.370603  0.750000  Weight =    0.002
--------------------------------------------------------------------------------

  Frequencies (cm-1) [NB: Negative implies an imaginary mode]:

  113.55  148.06  234.53  240.97  256.26  273.24


--------------------------------------------------------------------------------
  K point    594 =   0.378769  0.371231  0.750000  Weight =    0.002
--------------------------------------------------------------------------------

  Frequencies (cm-1) [NB: Negative implies an imaginary mode]:

  113.55  148.05  234.54  240.96  256.26  273.25


--------------------------------------------------------------------------------
  K point    595 =   0.378141  0.371859  0.750000  Weight =    0.002
--------------------------------------------------------------------------------

  Frequencies (cm-1) [NB: Negative implies an imaginary mode]:

  113.54  148.04  234.55  240.96  256.26  273.25


--------------------------------------------------------------------------------
  K point    596 =   0.377513  0.372487  0.750000  Weight =    0.002
--------------------------------------------------------------------------------

  Frequencies (cm-1) [NB: Negative implies an imaginary mode]:

  113.53  148.04  234.56  240.95  256.26  273.25


--------------------------------------------------------------------------------
  K point    597 =   0.376884  0.373116  0.750000  Weight =    0.002
--------------------------------------------------------------------------------

  Frequencies (cm-1) [NB: Negative implies an imaginary mode]:

  113.53  148.03  234.56  240.95  256.26  273.25


--------------------------------------------------------------------------------
  K point    598 =   0.376256  0.373744  0.750000  Weight =    0.002
--------------------------------------------------------------------------------

  Frequencies (cm-1) [NB: Negative implies an imaginary mode]:

  113.52  148.03  234.57  240.95  256.26  273.25


--------------------------------------------------------------------------------
  K point    599 =   0.375628  0.374372  0.750000  Weight =    0.002
--------------------------------------------------------------------------------

  Frequencies (cm-1) [NB: Negative implies an imaginary mode]:

  113.52  148.03  234.57  240.95  256.26  273.25


--------------------------------------------------------------------------------
  K point    600 =   0.375000  0.375000  0.750000  Weight =    0.002
--------------------------------------------------------------------------------

  Frequencies (cm-1) [NB: Negative implies an imaginary mode]:

  113.52  148.03  234.57  240.95  256.27  273.25


--------------------------------------------------------------------------------
  K point    601 =   0.500000  0.500000  0.500000  Weight =    0.001
--------------------------------------------------------------------------------

  Frequencies (cm-1) [NB: Negative implies an imaginary mode]:

   89.03   89.03  239.60  241.59  241.59  279.40


--------------------------------------------------------------------------------
  Phonon properties (per mole of unit cells): Temperature =      0.000 K
--------------------------------------------------------------------------------
  Zero point energy            =        0.075528 eV
--------------------------------------------------------------------------------

  Phonon density of states : 

--------------------------------------------------------------------------------
 Frequency (cm-1) Density of States                                             
--------------------------------------------------------------------------------
    0.00000 |                                                              0.000
    4.36556 |                                                              0.000
    8.73112 |                                                              0.000
   13.09669 |                                                              0.000
   17.46225 |                                                              0.000
   21.82781 |                                                              0.000
   26.19337 |                                                              0.000
   30.55893 |                                                              0.000
   34.92450 |                                                              0.000
   39.29006 |                                                              0.000
   43.65562 |                                                              0.000
   48.02118 |                                                              0.000
   52.38674 |                                                              0.000
   56.75231 |                                                              0.000
   61.11787 |                                                              0.000
   65.48343 |                                                              0.000
   69.84899 |                                                              0.000
   74.21455 |                                                              0.000
   78.58011 |                                                              0.000
   82.94568 |                                                              0.000
   87.31124 |************************************************************  0.333
   91.67680 |                                                              0.000
   96.04236 |                                                              0.000
  100.40792 |                                                              0.000
  104.77349 |                                                              0.000
  109.13905 |                                                              0.000
  113.50461 |                                                              0.000
  117.87017 |                                                              0.000
  122.23573 |                                                              0.000
  126.60130 |                                                              0.000
  130.96686 |                                                              0.000
  135.33242 |                                                              0.000
  139.69798 |                                                              0.000
  144.06354 |                                                              0.000
  148.42911 |                                                              0.000
  152.79467 |                                                              0.000
  157.16023 |                                                              0.000
  161.52579 |                                                              0.000
  165.89135 |                                                              0.000
  170.25692 |                                                              0.000
  174.62248 |                                                              0.000
  178.98804 |                                                              0.000
  183.35360 |                                                              0.000
  187.71916 |                                                              0.000
  192.08473 |                                                              0.000
  196.45029 |                                                              0.000
  200.81585 |                                                              0.000
  205.18141 |                                                              0.000
  209.54697 |                                                              0.000
  213.91253 |                                                              0.000
  218.27810 |                                                              0.000
  222.64366 |                                                              0.000
  227.00922 |                                                              0.000
  231.37478 |                                                              0.000
  235.74034 |******************************                                0.167
  240.10591 |************************************************************  0.333
  244.47147 |                                                              0.000
  248.83703 |                                                              0.000
  253.20259 |                                                              0.000
  257.56815 |                                                              0.000
  261.93372 |                                                              0.000
  266.29928 |                                                              0.000
  270.66484 |                                                              0.000
  275.03040 |******************************                                0.167
--------------------------------------------------------------------------------




  Phonon density of states written as xyz1.dens                     



  Phonon dispersion curves : 

--------------------------------------------------------------------------------
  Section number =   1
--------------------------------------------------------------------------------
  Frequency (cm-1) Phonon dispersion                                            
--------------------------------------------------------------------------------
   343.76   |***************                                             
   329.44   |               *****************                            
   315.11   |                               **********                   
   300.79   |                                        ********            
   286.47   |                                                ******      
   272.14   |                                                      ******
   257.82   |                                                       *****
   243.50   |*************************************************   ****    
   229.17   |                                                ************
   214.85   |                                            ****            
   200.53   |                                         ****               
   186.20   |                                     ****                   
   171.88   |                                  ****                      
   157.56   |                               ****                         
   143.23   |                            ****                            
   128.91   |                         ****                               
   114.59   |                      ****                        **********
   100.26   |                   ****              **************         
    85.94   |                ****          ********                      
    71.62   |             ****      *******                              
    57.29   |           ***    ******                                    
    42.97   |        ***  ******                                         
    28.65   |     *********                                              
    14.32   |  *******                                                   
     0.00   |*****                                                       
--------------------------------------------------------------------------------
  Section number =   2
--------------------------------------------------------------------------------
  Frequency (cm-1) Phonon dispersion                                            
--------------------------------------------------------------------------------
   343.76   |                                                            
   329.44   |                                                            
   315.11   |                                                            
   300.79   |                                                            
   286.47   |                                                            
   272.14   |************************************************************
   257.82   |********************                                        
   243.50   |       *****************************************************
   229.17   |************************************************            
   214.85   |                                               *************
   200.53   |                                                            
   186.20   |                                                            
   171.88   |                                                            
   157.56   |                                                 ***********
   143.23   |                                   ***************          
   128.91   |                      **************                        
   114.59   |************************************************************
   100.26   |                                                            
    85.94   |                                                            
    71.62   |                                                            
    57.29   |                                                            
    42.97   |                                                            
    28.65   |                                                            
    14.32   |                                                            
     0.00   |                                                            
--------------------------------------------------------------------------------
  Section number =   3
--------------------------------------------------------------------------------
  Frequency (cm-1) Phonon dispersion                                            
--------------------------------------------------------------------------------
   343.76   |                                                            
   329.44   |                                                            
   315.11   |                                                            
   300.79   |                                                            
   286.47   |                                                            
   272.14   |************************************************************
   257.82   |                                                            
   243.50   |************************************************************
   229.17   |                        ************************************
   214.85   |*******************************                             
   200.53   |                                                            
   186.20   |                                                            
   171.88   |                                                            
   157.56   |********************                                        
   143.23   |                   *****************************************
   128.91   |                                                            
   114.59   |************************************************            
   100.26   |                                               *************
    85.94   |                                                            
    71.62   |                                                            
    57.29   |                                                            
    42.97   |                                                            
    28.65   |                                                            
    14.32   |                                                            
     0.00   |                                                            
--------------------------------------------------------------------------------


  Phonon dispersion written as xyz1.disp                     

  Time to end of properties =       0.3960 seconds


  Peak dynamic memory used =       0.69 MB 


  Timing analysis for GULP :

--------------------------------------------------------------------------------
  Task / Subroutine                                          Time (Seconds)
--------------------------------------------------------------------------------
  Calculation of reciprocal space energy and derivatives          0.0960
  Calculation of real space energy and derivatives                0.2160
  Calculation of three-body energy and derivatives                0.0240
  Calculation of phonons                                          0.3840
--------------------------------------------------------------------------------
  Total CPU time                                                  0.3960
--------------------------------------------------------------------------------



  **** GULP has completed with   4 warnings - beware! ****

  Job Finished at 14:52.06  7th June       2019                               

