********************************************************************************
*                       GENERAL UTILITY LATTICE PROGRAM                        *
*                                 Julian Gale                                  *
*                       Curtin Institute for Computation                       *
*                           Department of Chemistry                            *
*                    Curtin University, Western Australia                      *
********************************************************************************
* Version = 5.1.1 * Last modified =  11th April 2019                           *
********************************************************************************
*  single       - perform a single point run                                   *
*  phonon       - calculate phonons for final geometry                         *
********************************************************************************

  Job Started  at 16:32.42 13th June       2019                               

  Number of CPUs =     1


  Total number of configurations input =      1

********************************************************************************
*  Input for Configuration =   1                                               *
********************************************************************************

  Formula = Cu4S6Ge2                                                    

  Number of irreducible atoms/shells =      18


  Total number atoms/shells =      18

  Dimensionality = 3               :  Bulk   



  Cartesian lattice vectors (Angstroms) :

        6.515000    0.000000    0.000000
        2.125158    6.118434    0.000000
        1.062518    3.058986    5.648608

  Cell parameters (Angstroms/Degrees):

  a =       6.5150    alpha =  60.1750
  b =       6.4770    beta  =  80.6080
  c =       6.5110    gamma =  70.8460

  Initial cell volume =         225.162553 Angs**3

  Shrinking factors =      1     1     1

  Temperature of configuration =  0.000     K 

  Pressure of configuration =         0.000 GPa 

  Fractional coordinates of asymmetric unit :

--------------------------------------------------------------------------------
   No.  Atomic       x           y          z         Charge      Occupancy
        Label      (Frac)      (Frac)     (Frac)        (e)         (Frac)  
--------------------------------------------------------------------------------
      1 Cu    c    0.140100    0.030100    0.169100     2.00000    1.000000    
      2 Cu    c    0.140200    0.373000    0.496300     2.00000    1.000000    
      3 Cu    c    0.640100    0.199200    0.830900     2.00000    1.000000    
      4 Cu    c    0.640200    0.869400    0.503700     2.00000    1.000000    
      5 S     c    0.007600    0.411500    0.166600     1.35700    1.000000    
      6 S     c    0.012200    0.745300    0.504000     1.35700    1.000000    
      7 S     c    0.014100    0.086600    0.830800     1.35700    1.000000    
      8 S     c    0.507600    0.578100    0.833400     1.35700    1.000000    
      9 S     c    0.512200    0.249300    0.496000     1.35700    1.000000    
     10 S     c    0.514100    0.917500    0.169200     1.35700    1.000000    
     11 Ge    c    0.120800    0.723500    0.825000     2.00000    1.000000    
     12 Ge    c    0.620800    0.548500    0.175000     2.00000    1.000000    
     13 S     s    0.007600    0.411500    0.166600    -3.35700    1.000000    
     14 S     s    0.012200    0.745300    0.504000    -3.35700    1.000000    
     15 S     s    0.014100    0.086600    0.830800    -3.35700    1.000000    
     16 S     s    0.507600    0.578100    0.833400    -3.35700    1.000000    
     17 S     s    0.512200    0.249300    0.496000    -3.35700    1.000000    
     18 S     s    0.514100    0.917500    0.169200    -3.35700    1.000000    
--------------------------------------------------------------------------------


  Brillouin zone sampling points :

--------------------------------------------------------------------------------
  Point number          x          y          z            Weight
--------------------------------------------------------------------------------
        1           0.000000   0.000000   0.000000     0.01626016
        2           0.025000   0.000000   0.025000     0.01626016
        3           0.050000   0.000000   0.050000     0.01626016
        4           0.075000   0.000000   0.075000     0.01626016
        5           0.100000   0.000000   0.100000     0.01626016
        6           0.125000   0.000000   0.125000     0.01626016
        7           0.150000   0.000000   0.150000     0.01626016
        8           0.175000   0.000000   0.175000     0.01626016
        9           0.200000   0.000000   0.200000     0.01626016
       10           0.225000   0.000000   0.225000     0.01626016
       11           0.250000   0.000000   0.250000     0.01626016
       12           0.275000   0.000000   0.275000     0.01626016
       13           0.300000   0.000000   0.300000     0.01626016
       14           0.325000   0.000000   0.325000     0.01626016
       15           0.350000   0.000000   0.350000     0.01626016
       16           0.375000   0.000000   0.375000     0.01626016
       17           0.400000   0.000000   0.400000     0.01626016
       18           0.425000   0.000000   0.425000     0.01626016
       19           0.450000   0.000000   0.450000     0.01626016
       20           0.475000   0.000000   0.475000     0.01626016
       21           0.500000   0.000000   0.500000     0.01626016
       22           0.525000   0.050000   0.525000     0.01626016
       23           0.550000   0.100000   0.550000     0.01626016
       24           0.575000   0.150000   0.575000     0.01626016
       25           0.600000   0.200000   0.600000     0.01626016
       26           0.625000   0.250000   0.625000     0.01626016
       27           0.650000   0.300000   0.650000     0.01626016
       28           0.675000   0.350000   0.675000     0.01626016
       29           0.700000   0.400000   0.700000     0.01626016
       30           0.725000   0.450000   0.725000     0.01626016
       31           0.750000   0.500000   0.750000     0.01626016
       32           0.775000   0.550000   0.775000     0.01626016
       33           0.800000   0.600000   0.800000     0.01626016
       34           0.825000   0.650000   0.825000     0.01626016
       35           0.850000   0.700000   0.850000     0.01626016
       36           0.875000   0.750000   0.875000     0.01626016
       37           0.900000   0.800000   0.900000     0.01626016
       38           0.925000   0.850000   0.925000     0.01626016
       39           0.950000   0.900000   0.950000     0.01626016
       40           0.975000   0.950000   0.975000     0.01626016
       41           0.000000   0.000000   0.000000     0.01626016
       42           0.975000   0.975000   0.975000     0.01626016
       43           0.950000   0.950000   0.950000     0.01626016
       44           0.925000   0.925000   0.925000     0.01626016
       45           0.900000   0.900000   0.900000     0.01626016
       46           0.875000   0.875000   0.875000     0.01626016
       47           0.850000   0.850000   0.850000     0.01626016
       48           0.825000   0.825000   0.825000     0.01626016
       49           0.800000   0.800000   0.800000     0.01626016
       50           0.775000   0.775000   0.775000     0.01626016
       51           0.750000   0.750000   0.750000     0.01626016
       52           0.725000   0.725000   0.725000     0.01626016
       53           0.700000   0.700000   0.700000     0.01626016
       54           0.675000   0.675000   0.675000     0.01626016
       55           0.650000   0.650000   0.650000     0.01626016
       56           0.625000   0.625000   0.625000     0.01626016
       57           0.600000   0.600000   0.600000     0.01626016
       58           0.575000   0.575000   0.575000     0.01626016
       59           0.550000   0.550000   0.550000     0.01626016
       60           0.525000   0.525000   0.525000     0.01626016
       61           0.500000   0.500000   0.500000     0.01626016
       62           0.500000   0.500000   0.500000     0.00813008
--------------------------------------------------------------------------------


********************************************************************************
*  General input information                                                   *
********************************************************************************

  Species output for all configurations : 

--------------------------------------------------------------------------------
  Species    Type    Atomic    Atomic    Charge       Radii (Angs)     Library
                     Number     Mass       (e)     Cova   Ionic  VDW   Symbol
--------------------------------------------------------------------------------
    Cu       Core       29      63.55   2.000000   1.520  0.000  1.540          
    Ge       Core       32      72.61   2.000000   1.170  0.000  1.750          
    S        Core       16      32.07   1.357000   1.020  0.000  1.700          
    S        Shell      16       0.00  -3.357000   1.020  0.000  0.000          
--------------------------------------------------------------------------------


  Lattice summation method               =    Ewald          (3-D)
                                         =    Parry          (2-D)
                                         =    Saunders et al (1-D)
  Accuracy factor for lattice sums       =   12.000


  Time limit = Infinity

  Maximum range for interatomic potentials =    100000.000000 Angstroms

  General interatomic potentials :

--------------------------------------------------------------------------------
Atom  Types   Potential      Parameter       Value         Units   Cutoffs(Ang)
  1     2                                                            Min /  Max 
--------------------------------------------------------------------------------
Cu   c S    s Buckingham    Buckingham A     213.20000    eV        0.000 15.000
                            Buckingham rho  0.47500000    Ang       
                            Buckingham C     0.0000000    eV*Ang^6  
--------------------------------------------------------------------------------
Ge   c S    s Buckingham    Buckingham A     213.20000    eV        0.000 15.000
                            Buckingham rho  0.47500000    Ang       
                            Buckingham C     0.0000000    eV*Ang^6  
--------------------------------------------------------------------------------
S    s S    s Buckingham    Buckingham A     11413.090    eV        0.000 15.000
                            Buckingham rho  0.15300000    Ang       
                            Buckingham C     0.0000000    eV*Ang^6  
--------------------------------------------------------------------------------
Cu   c S    s Lennard       Lennard-Jones A  664.35000    eV*Ang^m  0.000 15.000
                            Lennard-Jones B  10.540000    eV*Ang^n  
                            Exponent m         9          None
                            Exponent n         6          None
--------------------------------------------------------------------------------
Ge   c S    s Lennard       Lennard-Jones A  213.20000    eV*Ang^m  0.000  0.000
                            Lennard-Jones B 0.47500000    eV*Ang^n  
                            Exponent m         9          None
                            Exponent n         6          None
--------------------------------------------------------------------------------
S    s S    s Lennard       Lennard-Jones A  0.0000000    eV*Ang^m  0.000 15.000
                            Lennard-Jones B  129.18000    eV*Ang^n  
                            Exponent m         9          None
                            Exponent n         6          None
--------------------------------------------------------------------------------
S    c S    s Spring (c-s)  Spring k 2       27.690000    eV*Ang^-2 0.000  0.800
                            Spring k 4       0.0000000    eV*Ang^-4 
--------------------------------------------------------------------------------

********************************************************************************
*  Output for configuration   1                                                *
********************************************************************************


  Components of energy : 

--------------------------------------------------------------------------------
  Interatomic potentials     =          44.54353819 eV    
  Monopole - monopole (real) =        -101.42530714 eV    
  Monopole - monopole (recip)=        -144.39477037 eV    
  Monopole - monopole (total)=        -245.82007751 eV    
--------------------------------------------------------------------------------
  Total lattice energy       =        -201.27653932 eV    
--------------------------------------------------------------------------------
  Total lattice energy       =          -19420.1093 kJ/(mole unit cells)
--------------------------------------------------------------------------------

  Born effective charge tensors : 

-------------------------------------------------------------------------------
  Atom             x           y             z
-------------------------------------------------------------------------------
    1 Cu    x       1.6764     -0.0968      0.0274
            y      -0.0663      1.6531      0.0661
            z      -0.0232     -0.1518      1.7169
-------------------------------------------------------------------------------
    2 Cu    x       1.6847      0.0322      0.1188
            y       0.0204      1.6573     -0.0005
            z       0.0361      0.2803      1.6151
-------------------------------------------------------------------------------
    3 Cu    x       1.6757     -0.0972     -0.0272
            y      -0.0671      1.6531     -0.0657
            z       0.0234      0.1518      1.7161
-------------------------------------------------------------------------------
    4 Cu    x       1.6848      0.0322     -0.1194
            y       0.0204      1.6551     -0.0001
            z      -0.0366     -0.2806      1.6156
-------------------------------------------------------------------------------
    5 S     x      -2.6410      0.1113      0.2645
            y       0.1632     -2.2313      0.2422
            z       0.3010      0.2428     -2.3923
-------------------------------------------------------------------------------
    6 S     x      -1.8715     -0.1960     -0.3216
            y      -0.1952     -1.9008     -0.3954
            z      -0.3590     -0.3753     -2.3274
-------------------------------------------------------------------------------
    7 S     x      -1.7154     -0.0147     -0.0051
            y      -0.0615     -2.6164      0.0169
            z       0.0140     -0.0210     -1.7602
-------------------------------------------------------------------------------
    8 S     x      -2.6412      0.1111     -0.2643
            y       0.1633     -2.2316     -0.2418
            z      -0.3009     -0.2425     -2.3929
-------------------------------------------------------------------------------
    9 S     x      -1.8714     -0.1960      0.3216
            y      -0.1951     -1.8989      0.3953
            z       0.3591      0.3752     -2.3269
-------------------------------------------------------------------------------
   10 S     x      -1.7156     -0.0147      0.0049
            y      -0.0615     -2.6152     -0.0173
            z      -0.0143      0.0207     -1.7602
-------------------------------------------------------------------------------
   11 Ge    x       2.8669      0.1642     -0.0073
            y       0.1396      3.4384      0.1007
            z       0.1894     -0.0000      3.1478
-------------------------------------------------------------------------------
   12 Ge    x       2.8675      0.1644      0.0076
            y       0.1396      3.4371     -0.1004
            z      -0.1891      0.0004      3.1483
-------------------------------------------------------------------------------




  Elastic Constant Matrix: (Units=GPa)

-------------------------------------------------------------------------------
  Indices      1         2         3         4         5         6    
-------------------------------------------------------------------------------
       1    183.3538   -9.8218   33.6633    0.0711    0.1563  -43.4871
       2     -9.8218  177.2951   33.0189   -0.0388   -0.0826   12.6043
       3     33.6633   33.0189  150.6839    0.0457    0.1094   31.0691
       4      0.0711   -0.0388    0.0457   10.1054  -22.2307   -0.0200
       5      0.1563   -0.0826    0.1094  -22.2307  -48.1747   -0.0479
       6    -43.4871   12.6043   31.0691   -0.0200   -0.0479   39.5611
-------------------------------------------------------------------------------

  Elastic Constant Tensor Eigenvalues: (Units=GPa)

-------------------------------------------------------------------------------
     1 =   -55.6865     2 =    15.8853     3 =    17.6170
     4 =   124.8275     5 =   200.9178     6 =   209.2635
-------------------------------------------------------------------------------
  No. of non-positive eigenvalues = 1 => system is elastically unstable
-------------------------------------------------------------------------------


  Elastic Compliance Matrix: (Units=1/GPa)

-------------------------------------------------------------------------------
  Indices      1         2         3         4         5         6    
-------------------------------------------------------------------------------
       1    0.010130  0.000502 -0.005532 -0.000002  0.000005  0.015320
       2    0.000502  0.005940 -0.001357 -0.000000 -0.000011 -0.000275
       3   -0.005532 -0.001357  0.011138  0.000004  0.000022 -0.014395
       4   -0.000002 -0.000000  0.000004  0.049106 -0.022661 -0.000008
       5    0.000005 -0.000011  0.000022 -0.022661 -0.010301 -0.000032
       6    0.015320 -0.000275 -0.014395 -0.000008 -0.000032  0.053510
-------------------------------------------------------------------------------

  Mechanical properties :

-------------------------------------------------------------------------------
  Convention :                    Reuss         Voigt         Hill
-------------------------------------------------------------------------------
  Bulk  Modulus (GPa)     =      69.27868      69.45042      69.36455
  Shear Modulus (GPa)     =      36.46735      30.59651      33.53193
-------------------------------------------------------------------------------
  Velocity S-wave (km/s)  =       2.89048       2.64761       2.77171
  Velocity P-wave (km/s)  =       5.19730       5.02573       5.11224
-------------------------------------------------------------------------------
  Compressibility (1/GPa) =    0.01443445
-------------------------------------------------------------------------------
  Stress axis :                     x             y             z
-------------------------------------------------------------------------------
  Youngs Moduli (GPa)     =      98.71763     168.33788      89.78450
-------------------------------------------------------------------------------
  Poissons Ratio (x)      =                    -0.08456       0.49667
  Poissons Ratio (y)      =      -0.04959                     0.12187
  Poissons Ratio (z)      =       0.54609       0.22849
-------------------------------------------------------------------------------


  Piezoelectric Strain Matrix: (Units=C/m**2)

-------------------------------------------------------------------------------
  Indices      1         2         3         4         5         6    
-------------------------------------------------------------------------------
       x    27.70009 -11.90521 -17.82675   0.00673   0.01415 -15.59614
       y   -28.61532  33.94403  -6.72657  -0.04614  -0.09890   6.66004
       z    -0.11884   0.06680  -0.08194  24.98282  56.79825   0.03442
-------------------------------------------------------------------------------


  Piezoelectric Stress Matrix: (Units=10**-11 C/N)

-------------------------------------------------------------------------------
  Indices      1         2         3         4         5         6    
-------------------------------------------------------------------------------
       x    13.43075  -2.83301 -11.11113   0.00050   0.00852 -15.03065
       y   -13.35813  19.45713  -5.85727  -0.00395   0.11656   0.55206
       z     0.00518  -0.02066   0.05169  -6.02663-115.11930  -0.08373
-------------------------------------------------------------------------------


  Static dielectric constant tensor : 

-------------------------------------------------------------------------------
              x         y         z
-------------------------------------------------------------------------------
       x    -2.95746   4.56772   0.00754
       y     4.56772  -6.16509  -0.05275
       z     0.00754  -0.05275  36.13553
--------------------------------------------------------------------------------

  High frequency dielectric constant tensor : 

-------------------------------------------------------------------------------
              x         y         z
-------------------------------------------------------------------------------
       x     3.72457   0.02791   0.00002
       y     0.02791   3.87078   0.00003
       z     0.00002   0.00003   3.79457
-------------------------------------------------------------------------------

  Static refractive indices : 

-------------------------------------------------------------------------------
    1 =   -3.06634      2 =    0.52897      3 =    6.01129
-------------------------------------------------------------------------------

  High frequency refractive indices : 

-------------------------------------------------------------------------------
    1 =    1.92858      2 =    1.94797      3 =    1.96874
-------------------------------------------------------------------------------


  Phonon Calculation : 

  K direction for n-a correction at gamma =  1.00000  0.00000  0.00000

  Number of k points for this configuration =       62

--------------------------------------------------------------------------------
  K point      1 =   0.000000  0.000000  0.000000  Weight =    0.016
--------------------------------------------------------------------------------

  Frequencies (cm-1) [NB: Negative implies an imaginary mode]:

 -157.21 -142.81 -128.94 -121.38   -0.00   -0.00    0.00   25.01   69.91
   78.09   82.46  106.69  113.34  137.55  153.38  171.97  173.01  176.01
  183.03  212.50  223.58  238.31  243.77  251.21  257.29  260.26  278.83
  279.48  283.19  285.49  292.67  295.08  299.76  304.27  305.30  352.55


--------------------------------------------------------------------------------
  K point      2 =   0.025000  0.000000  0.025000  Weight =    0.016
--------------------------------------------------------------------------------

  Frequencies (cm-1) [NB: Negative implies an imaginary mode]:

 -160.78 -146.95 -129.05 -102.23  -41.23    4.76    8.17   12.54   77.19
   79.48   84.75  105.23  113.90  136.70  146.48  155.50  174.62  182.08
  193.86  212.41  222.94  239.09  243.88  253.23  256.96  263.92  279.38
  279.91  283.29  285.59  291.04  293.90  299.67  303.39  305.43  353.98


--------------------------------------------------------------------------------
  K point      3 =   0.050000  0.000000  0.050000  Weight =    0.016
--------------------------------------------------------------------------------

  Frequencies (cm-1) [NB: Negative implies an imaginary mode]:

 -160.62 -147.01 -129.12 -102.65  -42.53    9.45   16.05   24.27   77.66
   80.33   85.18  104.18  114.64  135.06  147.28  155.65  174.15  180.44
  193.86  211.83  223.26  238.83  244.36  251.98  257.15  264.56  279.27
  280.05  283.53  285.92  291.03  294.14  299.78  303.63  305.47  353.73


--------------------------------------------------------------------------------
  K point      4 =   0.075000  0.000000  0.075000  Weight =    0.016
--------------------------------------------------------------------------------

  Frequencies (cm-1) [NB: Negative implies an imaginary mode]:

 -160.37 -147.12 -129.23 -103.31  -43.80   13.97   23.48   35.13   78.17
   81.75   86.06  102.77  115.52  133.18  147.89  155.91  173.29  178.16
  193.58  210.91  223.71  238.53  244.90  250.11  257.56  265.49  279.18
  280.25  283.86  286.44  291.02  294.47  299.96  304.02  305.60  353.32


--------------------------------------------------------------------------------
  K point      5 =   0.100000  0.000000  0.100000  Weight =    0.016
--------------------------------------------------------------------------------

  Frequencies (cm-1) [NB: Negative implies an imaginary mode]:

 -160.04 -147.26 -129.33 -104.15  -44.69   18.24   30.37   45.26   78.74
   83.29   87.67  101.28  116.34  131.48  148.04  156.22  171.79  175.74
  192.86  209.69  224.16  238.20  245.19  248.05  258.21  266.63  279.13
  280.55  284.23  287.09  291.02  294.79  300.23  304.44  305.97  352.74


--------------------------------------------------------------------------------
  K point      6 =   0.125000  0.000000  0.125000  Weight =    0.016
--------------------------------------------------------------------------------

  Frequencies (cm-1) [NB: Negative implies an imaginary mode]:

 -159.66 -147.45 -129.40 -105.14  -45.11   22.18   36.69   54.69   79.50
   84.55   90.06  100.07  117.00  130.19  147.75  156.44  169.33  173.77
  191.65  208.21  224.47  237.77  244.05  247.11  259.06  267.98  279.09
  281.02  284.62  287.78  291.08  295.01  300.58  304.75  306.76  352.00


--------------------------------------------------------------------------------
  K point      7 =   0.150000  0.000000  0.150000  Weight =    0.016
--------------------------------------------------------------------------------

  Frequencies (cm-1) [NB: Negative implies an imaginary mode]:

 -159.25 -147.66 -129.42 -106.23  -45.04   25.67   42.43   63.37   80.53
   85.66   92.53   99.82  117.49  129.35  147.11  156.36  166.19  172.23
  189.99  206.48  224.50  237.11  241.60  247.29  260.18  269.53  279.05
  281.66  285.01  288.41  291.26  295.09  301.03  305.00  307.90  351.09


--------------------------------------------------------------------------------
  K point      8 =   0.175000  0.000000  0.175000  Weight =    0.016
--------------------------------------------------------------------------------

  Frequencies (cm-1) [NB: Negative implies an imaginary mode]:

 -158.85 -147.91 -129.34 -107.40  -44.52   28.55   47.59   71.07   81.89
   86.91   94.22  101.41  117.89  128.88  146.19  155.72  163.02  170.84
  187.94  204.54  224.17  235.95  239.22  247.37  261.70  271.21  279.05
  282.43  285.39  288.92  291.65  295.02  301.50  305.34  309.28  350.01


--------------------------------------------------------------------------------
  K point      9 =   0.200000  0.000000  0.200000  Weight =    0.016
--------------------------------------------------------------------------------

  Frequencies (cm-1) [NB: Negative implies an imaginary mode]:

 -158.45 -148.19 -129.15 -108.65  -43.57   30.63   52.21   77.35   83.53
   88.65   95.65  104.45  118.36  128.64  145.07  154.18  160.43  169.47
  185.60  202.38  223.45  233.97  237.56  246.99  263.70  272.93  279.13
  283.27  285.75  289.29  292.26  294.86  301.90  305.90  310.78  348.76


--------------------------------------------------------------------------------
  K point     10 =   0.225000  0.000000  0.225000  Weight =    0.016
--------------------------------------------------------------------------------

  Frequencies (cm-1) [NB: Negative implies an imaginary mode]:

 -158.07 -148.50 -128.85 -109.94  -42.22   31.74   56.45   81.51   85.79
   90.82   98.08  107.87  119.08  128.54  143.77  151.71  158.66  168.08
  183.10  200.01  222.35  231.50  236.45  246.09  266.09  274.54  279.34
  284.07  286.13  289.62  293.00  294.69  302.18  306.76  312.35  347.35


--------------------------------------------------------------------------------
  K point     11 =   0.250000  0.000000  0.250000  Weight =    0.016
--------------------------------------------------------------------------------

  Frequencies (cm-1) [NB: Negative implies an imaginary mode]:

 -157.71 -148.84 -128.41 -111.28  -40.48   31.80   60.50   83.60   89.08
   92.76  101.74  110.99  120.30  128.62  142.32  148.91  157.33  166.64
  180.57  197.44  220.92  228.99  235.52  244.75  268.66  275.89  279.77
  284.65  286.70  290.00  293.65  294.73  302.35  307.87  313.92  345.77


--------------------------------------------------------------------------------
  K point     12 =   0.275000  0.000000  0.275000  Weight =    0.016
--------------------------------------------------------------------------------

  Frequencies (cm-1) [NB: Negative implies an imaginary mode]:

 -157.37 -149.22 -127.85 -112.65  -38.36   30.84   64.53   84.98   92.60
   94.49  105.57  113.26  122.34  129.06  140.78  146.32  156.11  165.11
  178.15  194.70  219.28  226.60  234.63  243.06  271.16  276.87  280.45
  284.88  287.63  290.47  293.81  295.37  302.47  309.15  315.47  344.02


--------------------------------------------------------------------------------
  K point     13 =   0.300000  0.000000  0.300000  Weight =    0.016
--------------------------------------------------------------------------------

  Frequencies (cm-1) [NB: Negative implies an imaginary mode]:

 -157.04 -149.63 -127.19 -114.02  -35.87   29.03   68.61   86.26   94.95
   97.16  108.59  114.53  125.10  130.02  139.29  144.24  154.92  163.46
  176.00  191.85  217.57  224.32  233.76  241.14  273.35  277.52  281.26
  284.87  288.86  291.08  293.77  296.33  302.65  310.51  316.95  342.10


--------------------------------------------------------------------------------
  K point     14 =   0.325000  0.000000  0.325000  Weight =    0.016
--------------------------------------------------------------------------------

  Frequencies (cm-1) [NB: Negative implies an imaginary mode]:

 -156.69 -150.07 -126.43 -115.37  -33.06   26.54   72.75   87.54   96.22
  100.58  110.41  115.14  127.68  131.46  138.13  142.93  153.83  161.68
  174.25  188.94  215.92  222.13  232.91  239.10  275.09  278.00  281.99
  284.78  290.11  291.93  293.83  297.32  303.00  311.88  318.34  340.03


--------------------------------------------------------------------------------
  K point     15 =   0.350000  0.000000  0.350000  Weight =    0.016
--------------------------------------------------------------------------------

  Frequencies (cm-1) [NB: Negative implies an imaginary mode]:

 -156.32 -150.53 -125.61 -116.67  -30.04   23.54   76.87   88.79   97.32
  103.73  111.22  115.54  128.93  132.80  137.53  142.92  153.09  159.88
  173.00  186.04  214.42  219.98  232.08  237.04  276.30  278.42  282.52
  284.69  291.06  292.87  294.27  298.22  303.76  313.18  319.63  337.80


--------------------------------------------------------------------------------
  K point     16 =   0.375000  0.000000  0.375000  Weight =    0.016
--------------------------------------------------------------------------------

  Frequencies (cm-1) [NB: Negative implies an imaginary mode]:

 -155.92 -151.00 -124.79 -117.89  -26.95   20.10   80.85   89.93   98.53
  106.18  111.58  115.96  128.73  132.87  137.54  144.23  152.89  158.49
  172.28  183.19  213.12  217.88  231.30  235.07  277.06  278.79  282.87
  284.64  291.77  293.30  295.36  298.85  305.16  314.37  320.78  335.43


--------------------------------------------------------------------------------
  K point     17 =   0.400000  0.000000  0.400000  Weight =    0.016
--------------------------------------------------------------------------------

  Frequencies (cm-1) [NB: Negative implies an imaginary mode]:

 -155.49 -151.49 -123.99 -118.97  -23.94   16.24   84.52   90.89  100.02
  107.49  112.15  116.54  127.81  131.69  137.56  145.63  152.96  158.57
  171.97  180.40  212.04  215.85  230.59  233.29  277.53  279.01  283.15
  284.59  292.38  293.47  296.49  299.17  307.24  315.39  321.77  332.95


--------------------------------------------------------------------------------
  K point     18 =   0.425000  0.000000  0.425000  Weight =    0.016
--------------------------------------------------------------------------------

  Frequencies (cm-1) [NB: Negative implies an imaginary mode]:

 -155.02 -151.99 -123.27 -119.90  -21.12   11.70   87.64   91.62  101.89
  107.74  112.93  117.21  126.82  130.10  137.24  145.23  154.13  160.21
  171.91  177.73  211.21  213.98  230.01  231.79  277.85  279.06  283.41
  284.53  292.90  293.58  297.39  299.27  309.76  316.20  322.58  330.40


--------------------------------------------------------------------------------
  K point     19 =   0.450000  0.000000  0.450000  Weight =    0.016
--------------------------------------------------------------------------------

  Frequencies (cm-1) [NB: Negative implies an imaginary mode]:

 -154.53 -152.49 -122.65 -120.65  -18.48    4.97   90.03   92.13  104.01
  107.59  113.61  117.39  126.34  128.61  136.97  143.06  156.69  162.03
  171.90  175.33  210.65  212.38  229.58  230.64  278.12  278.97  283.67
  284.44  293.32  293.66  298.05  299.22  312.42  316.75  323.20  327.90


--------------------------------------------------------------------------------
  K point     20 =   0.475000  0.000000  0.475000  Weight =    0.016
--------------------------------------------------------------------------------

  Frequencies (cm-1) [NB: Negative implies an imaginary mode]:

 -154.03 -153.00 -122.15 -121.23  -15.84   -8.63   91.55   92.37  105.93
  107.38  114.31  116.58  126.58  127.53  137.25  140.52  159.54  162.81
  171.95  173.49  210.40  211.22  229.38  229.87  278.36  278.80  283.90
  284.31  293.59  293.71  298.52  299.08  314.83  316.93  323.68  325.70


--------------------------------------------------------------------------------
  K point     21 =   0.500000  0.000000  0.500000  Weight =    0.016
--------------------------------------------------------------------------------

  Frequencies (cm-1) [NB: Negative implies an imaginary mode]:

 -153.53 -153.50 -121.73 -121.68  -12.98  -12.66   92.25   92.27  107.02
  107.03  115.31  115.32  126.97  126.99  138.42  138.44  161.85  161.86
  172.38  172.41  210.55  210.57  229.46  229.46  278.57  278.61  284.05
  284.20  293.68  293.73  298.84  298.85  316.41  316.45  324.27  324.31


--------------------------------------------------------------------------------
  K point     22 =   0.525000  0.050000  0.525000  Weight =    0.016
--------------------------------------------------------------------------------

  Frequencies (cm-1) [NB: Negative implies an imaginary mode]:

 -154.60 -152.42 -121.93 -121.43  -13.54  -12.66   90.76   92.22  106.34
  107.03  114.46  115.55  126.72  127.78  137.64  138.90  161.10  163.27
  168.39  176.80  210.52  211.29  225.22  233.36  277.55  278.83  281.83
  285.91  292.73  295.15  298.44  299.99  314.92  317.43  323.36  325.49


--------------------------------------------------------------------------------
  K point     23 =   0.550000  0.100000  0.550000  Weight =    0.016
--------------------------------------------------------------------------------

  Frequencies (cm-1) [NB: Negative implies an imaginary mode]:

 -155.73 -151.27 -122.23 -120.96  -14.45  -13.44   88.27   90.61  105.39
  105.73  113.91  114.72  127.33  128.48  136.85  138.71  160.42  165.40
  165.60  181.14  211.08  212.67  220.92  236.68  274.76  278.87  280.73
  286.68  292.29  296.12  298.26  302.54  313.23  317.45  323.18  326.61


--------------------------------------------------------------------------------
  K point     24 =   0.575000  0.150000  0.575000  Weight =    0.016
--------------------------------------------------------------------------------

  Frequencies (cm-1) [NB: Negative implies an imaginary mode]:

 -156.95 -150.08 -122.59 -120.12  -15.49  -15.23   85.41   88.04  103.32
  103.87  113.58  113.67  128.30  128.71  136.30  137.64  158.99  164.86
  168.03  185.12  212.16  213.84  217.64  239.16  271.33  278.87  280.55
  286.84  292.09  296.45  298.13  305.93  311.49  316.56  323.76  327.50


--------------------------------------------------------------------------------
  K point     25 =   0.600000  0.200000  0.600000  Weight =    0.016
--------------------------------------------------------------------------------

  Frequencies (cm-1) [NB: Negative implies an imaginary mode]:

 -158.26 -148.96 -122.86 -118.78  -18.24  -16.43   82.78   85.40  100.44
  101.60  112.97  113.37  128.21  128.84  135.98  136.29  157.25  165.36
  170.80  188.52  211.40  213.66  218.98  240.54  268.56  278.87  280.68
  286.71  291.96  296.49  297.98  309.03  309.80  315.50  324.63  328.01


--------------------------------------------------------------------------------
  K point     26 =   0.625000  0.250000  0.625000  Weight =    0.016
--------------------------------------------------------------------------------

  Frequencies (cm-1) [NB: Negative implies an imaginary mode]:

 -159.60 -148.10 -122.79 -116.92  -21.99  -17.74   80.92   83.45   97.45
   99.03  112.81  112.93  126.77  128.64  134.50  136.92  155.38  166.19
  173.30  191.23  208.21  215.50  222.25  240.75  267.08  278.91  280.96
  286.47  291.83  296.39  297.81  308.20  310.38  315.47  325.65  328.06


--------------------------------------------------------------------------------
  K point     27 =   0.650000  0.300000  0.650000  Weight =    0.016
--------------------------------------------------------------------------------

  Frequencies (cm-1) [NB: Negative implies an imaginary mode]:

 -160.88 -147.70 -122.09 -114.57  -26.29  -19.47   80.13   82.69   94.47
   96.74  111.97  113.22  124.66  128.04  133.72  137.92  152.96  167.12
  175.05  193.26  205.82  217.58  225.96  240.19  266.90  279.01  281.35
  286.20  291.63  296.21  297.62  306.70  309.51  316.54  327.04  327.57


--------------------------------------------------------------------------------
  K point     28 =   0.675000  0.350000  0.675000  Weight =    0.016
--------------------------------------------------------------------------------

  Frequencies (cm-1) [NB: Negative implies an imaginary mode]:

 -162.01 -147.90 -120.66 -111.84  -30.74  -21.46   80.30   83.18   91.62
   95.07  110.99  113.71  122.52  127.59  133.53  139.01  149.58  168.29
  175.52  194.86  204.50  219.78  229.76  239.55  267.58  279.18  281.82
  285.94  291.33  295.94  297.42  305.33  307.87  316.95  326.52  329.03


--------------------------------------------------------------------------------
  K point     29 =   0.700000  0.400000  0.700000  Weight =    0.016
--------------------------------------------------------------------------------

  Frequencies (cm-1) [NB: Negative implies an imaginary mode]:

 -162.93 -148.59 -118.70 -108.84  -34.95  -23.29   80.33   84.21   89.54
   94.41  110.04  114.28  120.80  127.75  133.62  140.10  145.39  169.90
  174.38  196.39  204.18  221.98  233.42  239.38  268.67  279.44  282.31
  285.73  290.93  295.53  297.27  304.07  306.09  316.22  324.88  331.52


--------------------------------------------------------------------------------
  K point     30 =   0.725000  0.450000  0.725000  Weight =    0.016
--------------------------------------------------------------------------------

  Frequencies (cm-1) [NB: Negative implies an imaginary mode]:

 -163.61 -149.60 -116.62 -105.68  -38.57  -24.47   78.24   84.17   89.56
   95.60  109.12  114.86  119.64  128.79  132.89  141.25  141.83  171.82
  172.04  198.07  204.67  224.08  236.78  239.85  269.81  279.75  282.72
  285.57  290.45  294.86  297.21  302.93  304.43  314.56  322.70  334.19


--------------------------------------------------------------------------------
  K point     31 =   0.750000  0.500000  0.750000  Weight =    0.016
--------------------------------------------------------------------------------

  Frequencies (cm-1) [NB: Negative implies an imaginary mode]:

 -164.05 -150.73 -114.82 -102.42  -41.33  -24.69   74.05   82.12   90.96
   98.71  107.98  115.23  118.83  129.42  130.52  141.73  142.61  168.54
  174.61  199.89  205.75  226.03  239.71  240.88  270.77  280.09  282.92
  285.46  290.01  293.75  297.24  301.92  303.12  312.22  320.03  336.83


--------------------------------------------------------------------------------
  K point     32 =   0.775000  0.550000  0.775000  Weight =    0.016
--------------------------------------------------------------------------------

  Frequencies (cm-1) [NB: Negative implies an imaginary mode]:

 -164.28 -151.83 -113.60  -99.15  -43.04  -23.92   68.86   78.46   92.08
  102.63  105.95  115.19  117.44  125.70  132.09  144.48  144.59  165.61
  177.38  201.74  207.33  227.80  242.15  242.26  271.37  280.40  282.80
  285.39  289.74  292.06  297.33  301.04  302.34  309.43  317.02  339.32


--------------------------------------------------------------------------------
  K point     33 =   0.800000  0.600000  0.800000  Weight =    0.016
--------------------------------------------------------------------------------

  Frequencies (cm-1) [NB: Negative implies an imaginary mode]:

 -164.33 -152.85 -113.09  -95.94  -43.58  -22.36   63.16   73.65   92.13
  101.74  106.24  114.65  114.99  124.97  132.28  147.71  148.72  164.04
  180.00  203.56  209.39  229.40  243.80  244.12  271.46  280.60  282.35
  285.29  289.68  289.87  297.41  300.33  302.04  306.45  313.82  341.61


--------------------------------------------------------------------------------
  K point     34 =   0.825000  0.650000  0.825000  Weight =    0.016
--------------------------------------------------------------------------------

  Frequencies (cm-1) [NB: Negative implies an imaginary mode]:

 -164.22 -153.74 -113.28  -92.88  -42.86  -20.36   57.16   67.92   90.70
   95.23  107.86  113.20  114.27  126.27  131.16  151.95  153.83  164.23
  182.17  205.32  211.94  230.84  245.36  245.65  270.94  280.59  281.72
  284.83  287.63  289.72  297.31  299.85  301.83  303.75  310.70  343.66


--------------------------------------------------------------------------------
  K point     35 =   0.850000  0.700000  0.850000  Weight =    0.016
--------------------------------------------------------------------------------

  Frequencies (cm-1) [NB: Negative implies an imaginary mode]:

 -164.01 -154.51 -114.09  -90.07  -40.83  -18.26   50.88   61.49   84.93
   90.75  105.59  112.14  114.96  128.39  130.30  156.64  159.35  165.75
  183.69  207.00  214.89  232.16  246.82  246.86  269.78  279.94  281.07
  283.39  286.46  289.62  296.86  299.66  300.01  303.09  308.00  345.46


--------------------------------------------------------------------------------
  K point     36 =   0.875000  0.750000  0.875000  Weight =    0.016
--------------------------------------------------------------------------------

  Frequencies (cm-1) [NB: Negative implies an imaginary mode]:

 -163.72 -155.19 -115.36  -87.57  -37.51  -16.34   44.27   54.53   76.05
   88.42  100.64  111.36  115.31  130.86  130.88  161.23  164.81  167.94
  184.55  208.55  218.06  233.41  247.81  248.16  268.11  277.64  280.48
  282.28  286.12  289.10  296.16  297.62  299.66  303.49  306.05  346.99


--------------------------------------------------------------------------------
  K point     37 =   0.900000  0.800000  0.900000  Weight =    0.016
--------------------------------------------------------------------------------

  Frequencies (cm-1) [NB: Negative implies an imaginary mode]:

 -163.40 -155.79 -116.94  -85.42  -32.92  -14.60   37.13   47.25   66.98
   86.27   94.51  110.70  114.97  132.54  133.42  165.33  169.77  170.31
  184.97  209.93  221.14  234.65  248.80  249.27  266.11  274.11  279.95
  281.88  285.90  287.94  295.55  295.63  299.70  304.00  304.93  348.24


--------------------------------------------------------------------------------
  K point     38 =   0.925000  0.850000  0.925000  Weight =    0.016
--------------------------------------------------------------------------------

  Frequencies (cm-1) [NB: Negative implies an imaginary mode]:

 -163.09 -156.33 -118.58  -83.65  -27.07  -12.75   29.20   39.96   58.48
   84.34   88.32  110.15  114.38  134.47  135.81  168.67  172.53  173.73
  185.27  211.05  223.82  235.89  250.01  250.13  264.03  270.21  279.50
  281.66  285.67  286.32  294.16  295.22  299.72  304.43  304.51  349.22


--------------------------------------------------------------------------------
  K point     39 =   0.950000  0.900000  0.950000  Weight =    0.016
--------------------------------------------------------------------------------

  Frequencies (cm-1) [NB: Negative implies an imaginary mode]:

 -162.83 -156.78 -120.03  -82.29  -19.78  -10.22   20.29   33.10   51.15
   82.78   83.00  109.72  113.83  136.11  137.78  171.09  174.36  176.26
  185.81  211.87  225.81  237.06  250.74  251.67  262.13  266.31  279.14
  281.47  284.72  285.47  293.20  295.10  299.74  304.29  304.89  349.93


--------------------------------------------------------------------------------
  K point     40 =   0.975000  0.950000  0.975000  Weight =    0.016
--------------------------------------------------------------------------------

  Frequencies (cm-1) [NB: Negative implies an imaginary mode]:

 -162.66 -157.09 -121.03  -81.42  -10.74   -6.15   10.43   27.48   45.75
   79.38   81.78  109.46  113.47  137.18  139.10  172.53  175.58  177.40
  186.53  212.35  227.00  237.96  251.10  253.70  260.76  262.85  278.91
  281.34  283.59  285.31  292.68  295.08  299.75  304.26  305.14  350.35


--------------------------------------------------------------------------------
  K point     41 =   0.000000  0.000000  0.000000  Weight =    0.016
--------------------------------------------------------------------------------

  Frequencies (cm-1) [NB: Negative implies an imaginary mode]:

 -157.21 -142.81 -128.94 -121.38   -0.00   -0.00    0.00   25.01   69.91
   78.09   82.46  106.69  113.34  137.55  153.38  171.97  173.01  176.01
  183.03  212.50  223.58  238.31  243.77  251.21  257.29  260.26  278.83
  279.48  283.19  285.49  292.67  295.08  299.76  304.27  305.30  352.55


--------------------------------------------------------------------------------
  K point     42 =   0.975000  0.975000  0.975000  Weight =    0.016
--------------------------------------------------------------------------------

  Frequencies (cm-1) [NB: Negative implies an imaginary mode]:

 -160.15 -154.28 -122.49  -79.12  -48.43    1.97    7.09    8.48   54.35
   78.51   80.91  104.52  113.32  136.94  143.00  167.72  174.77  181.26
  191.61  212.49  224.34  238.53  248.48  254.18  256.14  261.94  278.89
  280.54  283.30  286.03  291.61  294.60  299.73  303.84  305.25  352.28


--------------------------------------------------------------------------------
  K point     43 =   0.950000  0.950000  0.950000  Weight =    0.016
--------------------------------------------------------------------------------

  Frequencies (cm-1) [NB: Negative implies an imaginary mode]:

 -160.24 -154.26 -122.26  -79.68  -48.82    4.10   14.02   16.75   55.96
   79.44   81.53  104.15  113.11  135.48  143.20  167.01  174.35  180.46
  191.63  212.39  224.09  238.61  248.26  253.24  257.10  262.91  278.83
  280.75  283.59  286.10  291.72  294.69  299.81  303.88  305.15  352.10


--------------------------------------------------------------------------------
  K point     44 =   0.925000  0.925000  0.925000  Weight =    0.016
--------------------------------------------------------------------------------

  Frequencies (cm-1) [NB: Negative implies an imaginary mode]:

 -160.37 -154.26 -121.90  -80.51  -49.45    6.41   20.63   24.67   58.58
   80.56   82.91  103.54  112.75  133.47  143.21  165.86  173.64  179.10
  191.64  212.24  223.68  238.75  247.98  251.96  258.51  264.24  278.79
  281.10  284.00  286.23  291.92  294.84  299.92  303.98  304.99  351.79


--------------------------------------------------------------------------------
  K point     45 =   0.900000  0.900000  0.900000  Weight =    0.016
--------------------------------------------------------------------------------

  Frequencies (cm-1) [NB: Negative implies an imaginary mode]:

 -160.53 -154.29 -121.41  -81.53  -50.29    8.83   26.84   32.14   62.12
   81.59   85.19  102.74  112.24  131.16  142.91  164.30  172.62  177.31
  191.54  212.04  223.14  238.98  247.63  250.58  260.18  265.81  278.77
  281.60  284.50  286.43  292.21  295.04  300.03  304.13  304.80  351.37


--------------------------------------------------------------------------------
  K point     46 =   0.875000  0.875000  0.875000  Weight =    0.016
--------------------------------------------------------------------------------

  Frequencies (cm-1) [NB: Negative implies an imaginary mode]:

 -160.67 -154.36 -120.82  -82.64  -51.30   11.20   32.59   39.11   66.47
   82.67   88.04  101.78  111.56  128.73  142.28  162.33  171.24  175.30
  191.17  211.78  222.48  239.25  246.99  249.50  261.92  267.54  278.79
  282.21  285.03  286.71  292.60  295.27  300.10  304.21  304.76  350.82


--------------------------------------------------------------------------------
  K point     47 =   0.850000  0.850000  0.850000  Weight =    0.016
--------------------------------------------------------------------------------

  Frequencies (cm-1) [NB: Negative implies an imaginary mode]:

 -160.80 -154.50 -120.16  -83.81  -52.40   13.33   37.89   45.56   71.48
   83.88   91.16  100.73  110.74  126.31  141.36  159.93  169.44  173.35
  190.43  211.41  221.73  239.39  245.86  249.21  263.61  269.39  278.86
  282.85  285.58  287.13  293.07  295.54  300.15  303.99  305.12  350.15


--------------------------------------------------------------------------------
  K point     48 =   0.825000  0.825000  0.825000  Weight =    0.016
--------------------------------------------------------------------------------

  Frequencies (cm-1) [NB: Negative implies an imaginary mode]:

 -160.89 -154.70 -119.45  -85.01  -53.52   15.07   42.81   51.48   76.96
   85.25   94.18   99.79  109.81  124.03  140.18  157.13  167.30  171.59
  189.26  210.88  220.90  238.98  244.88  249.56  265.16  271.29  278.96
  283.43  286.05  287.80  293.63  295.81  300.23  303.67  305.70  349.35


--------------------------------------------------------------------------------
  K point     49 =   0.800000  0.800000  0.800000  Weight =    0.016
--------------------------------------------------------------------------------

  Frequencies (cm-1) [NB: Negative implies an imaginary mode]:

 -160.93 -154.97 -118.73  -86.23  -54.59   16.27   47.43   56.88   82.68
   86.79   96.18   99.64  108.90  121.96  138.82  153.97  164.96  169.96
  187.67  210.13  219.99  237.54  244.72  250.37  266.56  273.12  279.11
  283.89  286.37  288.70  294.28  296.00  300.46  303.35  306.40  348.44


--------------------------------------------------------------------------------
  K point     50 =   0.775000  0.775000  0.775000  Weight =    0.016
--------------------------------------------------------------------------------

  Frequencies (cm-1) [NB: Negative implies an imaginary mode]:

 -160.92 -155.29 -118.03  -87.49  -55.52   16.76   51.83   61.77   87.63
   89.19   96.17  101.05  108.26  120.17  137.37  150.61  162.56  168.42
  185.75  209.14  218.97  235.27  245.24  251.57  267.83  274.77  279.33
  284.27  286.58  289.63  295.02  296.06  300.97  303.11  307.19  347.40


--------------------------------------------------------------------------------
  K point     51 =   0.750000  0.750000  0.750000  Weight =    0.016
--------------------------------------------------------------------------------

  Frequencies (cm-1) [NB: Negative implies an imaginary mode]:

 -160.86 -155.66 -117.37  -88.80  -56.24   16.39   56.06   66.16   89.52
   93.54   96.43  102.09  108.36  118.76  135.94  147.23  160.15  166.93
  183.59  207.90  217.85  232.57  246.07  253.09  269.00  276.11  279.68
  284.58  286.73  290.40  295.55  296.12  301.81  303.12  308.03  346.24


--------------------------------------------------------------------------------
  K point     52 =   0.725000  0.725000  0.725000  Weight =    0.016
--------------------------------------------------------------------------------

  Frequencies (cm-1) [NB: Negative implies an imaginary mode]:

 -160.75 -156.05 -116.80  -90.16  -56.70   14.90   60.17   70.06   90.51
   94.25  100.25  102.41  109.27  117.83  134.64  144.04  157.73  165.50
  181.31  206.44  216.61  229.65  247.04  254.82  270.07  277.04  280.22
  284.86  286.84  290.93  295.33  296.60  302.48  303.96  308.93  344.95


--------------------------------------------------------------------------------
  K point     53 =   0.700000  0.700000  0.700000  Weight =    0.016
--------------------------------------------------------------------------------

  Frequencies (cm-1) [NB: Negative implies an imaginary mode]:

 -160.60 -156.46 -116.33  -91.56  -56.85   11.80   64.16   73.49   90.40
   94.76  100.27  106.03  110.62  117.49  133.56  141.30  155.32  164.15
  179.03  204.80  215.25  226.64  248.08  256.67  271.07  277.56  280.93
  285.14  286.94  291.26  294.85  296.93  302.85  305.67  309.92  343.54


--------------------------------------------------------------------------------
  K point     54 =   0.675000  0.675000  0.675000  Weight =    0.016
--------------------------------------------------------------------------------

  Frequencies (cm-1) [NB: Negative implies an imaginary mode]:

 -160.41 -156.87 -116.00  -92.94  -56.67    4.72   68.03   76.46   89.55
   95.23   99.14  108.73  113.30  117.62  132.60  139.30  152.99  162.90
  176.87  203.03  213.80  223.64  249.13  258.50  271.99  277.79  281.67
  285.42  287.03  291.43  294.30  296.99  303.29  307.57  311.10  342.01


--------------------------------------------------------------------------------
  K point     55 =   0.650000  0.650000  0.650000  Weight =    0.016
--------------------------------------------------------------------------------

  Frequencies (cm-1) [NB: Negative implies an imaginary mode]:

 -160.19 -157.25 -115.83  -94.27  -56.16  -11.13   71.75   78.92   88.41
   94.33   98.98  109.55  116.81  118.24  131.60  138.31  150.88  161.79
  174.90  201.19  212.26  220.75  250.18  260.25  272.83  277.87  282.30
  285.69  287.14  291.50  293.77  296.85  303.79  309.19  312.73  340.35


--------------------------------------------------------------------------------
  K point     56 =   0.625000  0.625000  0.625000  Weight =    0.016
--------------------------------------------------------------------------------

  Frequencies (cm-1) [NB: Negative implies an imaginary mode]:

 -159.97 -157.60 -115.82  -95.46  -55.35  -17.08   75.25   80.80   87.00
   92.69   99.51  109.76  118.14  120.78  130.58  138.09  149.31  160.81
  173.18  199.39  210.68  218.08  251.17  261.82  273.57  277.84  282.80
  285.95  287.27  291.46  293.33  296.62  304.30  310.31  314.88  338.58


--------------------------------------------------------------------------------
  K point     57 =   0.600000  0.600000  0.600000  Weight =    0.016
--------------------------------------------------------------------------------

  Frequencies (cm-1) [NB: Negative implies an imaginary mode]:

 -159.77 -157.88 -115.97  -96.47  -54.27  -21.71   78.29   82.13   85.16
   91.67   99.97  109.59  118.86  123.22  129.80  137.87  148.79  159.96
  171.73  197.69  209.12  215.76  252.07  263.17  274.21  277.76  283.16
  286.16  287.42  291.35  293.01  296.36  304.76  311.06  317.33  336.70


--------------------------------------------------------------------------------
  K point     58 =   0.575000  0.575000  0.575000  Weight =    0.016
--------------------------------------------------------------------------------

  Frequencies (cm-1) [NB: Negative implies an imaginary mode]:

 -159.61 -158.08 -116.21  -97.25  -53.03  -25.51   80.17   82.47   84.19
   91.57  100.14  109.11  119.78  124.77  129.40  137.04  149.59  159.20
  170.54  196.21  207.66  213.87  252.83  264.26  274.73  277.65  283.39
  286.31  287.57  291.20  292.82  296.11  305.14  311.59  319.85  334.72


--------------------------------------------------------------------------------
  K point     59 =   0.550000  0.550000  0.550000  Weight =    0.016
--------------------------------------------------------------------------------

  Frequencies (cm-1) [NB: Negative implies an imaginary mode]:

 -159.52 -158.19 -116.47  -97.79  -51.78  -28.50   80.01   81.49   85.92
   91.94   99.99  108.47  120.84  125.49  129.37  135.79  151.24  158.44
  169.61  195.04  206.46  212.49  253.41  265.06  275.11  277.54  283.53
  286.39  287.72  291.06  292.72  295.91  305.42  311.95  322.33  332.68


--------------------------------------------------------------------------------
  K point     60 =   0.525000  0.525000  0.525000  Weight =    0.016
--------------------------------------------------------------------------------

  Frequencies (cm-1) [NB: Negative implies an imaginary mode]:

 -159.48 -158.23 -116.67  -98.11  -50.80  -30.49   78.88   81.36   87.50
   92.40   99.63  107.96  121.82  125.64  129.52  134.67  152.95  157.66
  169.00  194.29  205.67  211.65  253.78  265.55  275.34  277.46  283.60
  286.43  287.81  290.98  292.68  295.78  305.59  312.16  324.58  330.71


--------------------------------------------------------------------------------
  K point     61 =   0.500000  0.500000  0.500000  Weight =    0.016
--------------------------------------------------------------------------------

  Frequencies (cm-1) [NB: Negative implies an imaginary mode]:

 -159.47 -158.24 -116.75  -98.21  -50.42  -31.21   78.42   81.33   88.10
   92.62   99.42  107.76  122.25  125.60  129.62  134.22  153.79  157.20
  168.78  194.03  205.39  211.37  253.90  265.71  275.42  277.43  283.62
  286.44  287.85  290.94  292.67  295.73  305.65  312.23  325.81  329.57


--------------------------------------------------------------------------------
  K point     62 =   0.500000  0.500000  0.500000  Weight =    0.008
--------------------------------------------------------------------------------

  Frequencies (cm-1) [NB: Negative implies an imaginary mode]:

 -159.47 -158.24 -116.75  -98.21  -50.42  -31.21   78.42   81.33   88.10
   92.62   99.42  107.76  122.25  125.60  129.62  134.22  153.79  157.20
  168.78  194.03  205.39  211.37  253.90  265.71  275.42  277.43  283.62
  286.44  287.85  290.94  292.67  295.73  305.65  312.23  325.81  329.57


--------------------------------------------------------------------------------
  Phonon properties (per mole of unit cells): Temperature =      0.000 K
--------------------------------------------------------------------------------
  Zero point energy            =        0.386609 eV
--------------------------------------------------------------------------------

  Phonon density of states : 

--------------------------------------------------------------------------------
 Frequency (cm-1) Density of States                                             
--------------------------------------------------------------------------------
    0.00000 |***                                                           0.004
    5.53092 |***                                                           0.004
   11.06183 |******                                                        0.007
   16.59275 |***                                                           0.003
   22.12366 |*****                                                         0.006
   27.65458 |*****                                                         0.006
   33.18549 |**                                                            0.002
   38.71641 |**                                                            0.002
   44.24732 |***                                                           0.004
   49.77824 |****                                                          0.004
   55.30915 |****                                                          0.005
   60.84007 |****                                                          0.004
   66.37098 |******                                                        0.006
   71.90190 |*****                                                         0.006
   77.43281 |*************************                                     0.026
   82.96373 |**********************                                        0.023
   88.49465 |*********************                                         0.022
   94.02556 |****************                                              0.017
   99.55648 |*******************                                           0.020
  105.08739 |**********************                                        0.023
  110.61831 |******************************                                0.031
  116.14922 |**************                                                0.014
  121.68014 |*************                                                 0.013
  127.21105 |**************************                                    0.027
  132.74197 |************************                                      0.025
  138.27288 |***************                                               0.016
  143.80380 |***********                                                   0.012
  149.33471 |***********                                                   0.011
  154.86563 |****************                                              0.017
  160.39654 |*****************                                             0.018
  165.92746 |****************                                              0.017
  171.45838 |**************************                                    0.027
  176.98929 |*********                                                     0.010
  182.52021 |********                                                      0.009
  188.05112 |*******                                                       0.008
  193.58204 |*******                                                       0.007
  199.11295 |*****                                                         0.006
  204.64387 |************                                                  0.013
  210.17478 |***********************                                       0.024
  215.70570 |***********                                                   0.012
  221.23661 |***************                                               0.016
  226.76753 |**********                                                    0.011
  232.29844 |************                                                  0.013
  237.82936 |***************                                               0.016
  243.36027 |******************                                            0.019
  248.89119 |***************                                               0.016
  254.42211 |******                                                        0.007
  259.95302 |***********                                                   0.012
  265.48394 |**************                                                0.015
  271.01485 |*************                                                 0.014
  276.54577 |****************************************************          0.054
  282.07668 |************************************************************  0.061
  287.60760 |****************************************                      0.041
  293.13851 |**************************************************            0.052
  298.66943 |**************************************                        0.039
  304.20034 |********************************                              0.033
  309.73126 |***************                                               0.016
  315.26217 |***********                                                   0.012
  320.79309 |*********                                                     0.010
  326.32400 |*******                                                       0.007
  331.85492 |***                                                           0.004
  337.38584 |****                                                          0.004
  342.91675 |******                                                        0.006
  348.44767 |**********                                                    0.011
--------------------------------------------------------------------------------




  Phonon density of states written on channel 17



  XYZ File written as gulp.xyz


  Time to end of properties =       0.7400 seconds


  Peak dynamic memory used =       0.71 MB 


  Timing analysis for GULP :

--------------------------------------------------------------------------------
  Task / Subroutine                                          Time (Seconds)
--------------------------------------------------------------------------------
  Calculation of reciprocal space energy and derivatives          0.3360
  Calculation of real space energy and derivatives                0.3600
  Calculation of phonons                                          0.7280
--------------------------------------------------------------------------------
  Total CPU time                                                  0.7400
--------------------------------------------------------------------------------


  Job Finished at 16:32.42 13th June       2019                               

