********************************************************************************
*                       GENERAL UTILITY LATTICE PROGRAM                        *
*                                 Julian Gale                                  *
*                       Curtin Institute for Computation                       *
*                           Department of Chemistry                            *
*                    Curtin University, Western Australia                      *
********************************************************************************
* Version = 5.1.1 * Last modified =  11th April 2019                           *
********************************************************************************
*  single       - perform a single point run                                   *
*  phonon       - calculate phonons for final geometry                         *
********************************************************************************

  Job Started  at 16:41.25 13th June       2019                               

  Number of CPUs =     1


  Total number of configurations input =      1

********************************************************************************
*  Input for Configuration =   1                                               *
********************************************************************************

  Formula = Cu4S6Ge2                                                    

  Number of irreducible atoms/shells =      18


  Total number atoms/shells =      18

  Dimensionality = 3               :  Bulk   



  Cartesian lattice vectors (Angstroms) :

        6.515000    0.000000    0.000000
        2.125158    6.118434    0.000000
        1.062518    3.058986    5.648608

  Cell parameters (Angstroms/Degrees):

  a =       6.5150    alpha =  60.1750
  b =       6.4770    beta  =  80.6080
  c =       6.5110    gamma =  70.8460

  Initial cell volume =         225.162553 Angs**3

  Shrinking factors =      1     1     1

  Temperature of configuration =  0.000     K 

  Pressure of configuration =         0.000 GPa 

  Fractional coordinates of asymmetric unit :

--------------------------------------------------------------------------------
   No.  Atomic       x           y          z         Charge      Occupancy
        Label      (Frac)      (Frac)     (Frac)        (e)         (Frac)  
--------------------------------------------------------------------------------
      1 Cu    c    0.140100    0.030100    0.169100     2.00000    1.000000    
      2 Cu    c    0.140200    0.373000    0.496300     2.00000    1.000000    
      3 Cu    c    0.640100    0.199200    0.830900     2.00000    1.000000    
      4 Cu    c    0.640200    0.869400    0.503700     2.00000    1.000000    
      5 S     c    0.007600    0.411500    0.166600     1.35700    1.000000    
      6 S     c    0.012200    0.745300    0.504000     1.35700    1.000000    
      7 S     c    0.014100    0.086600    0.830800     1.35700    1.000000    
      8 S     c    0.507600    0.578100    0.833400     1.35700    1.000000    
      9 S     c    0.512200    0.249300    0.496000     1.35700    1.000000    
     10 S     c    0.514100    0.917500    0.169200     1.35700    1.000000    
     11 Ge    c    0.120800    0.723500    0.825000     2.00000    1.000000    
     12 Ge    c    0.620800    0.548500    0.175000     2.00000    1.000000    
     13 S     s    0.007600    0.411500    0.166600    -3.35700    1.000000    
     14 S     s    0.012200    0.745300    0.504000    -3.35700    1.000000    
     15 S     s    0.014100    0.086600    0.830800    -3.35700    1.000000    
     16 S     s    0.507600    0.578100    0.833400    -3.35700    1.000000    
     17 S     s    0.512200    0.249300    0.496000    -3.35700    1.000000    
     18 S     s    0.514100    0.917500    0.169200    -3.35700    1.000000    
--------------------------------------------------------------------------------


  Brillouin zone sampling points :

--------------------------------------------------------------------------------
  Point number          x          y          z            Weight
--------------------------------------------------------------------------------
        1           0.000000   0.000000   0.000000     0.00511509
        2           0.007692   0.000000   0.007692     0.00511509
        3           0.015385   0.000000   0.015385     0.00511509
        4           0.023077   0.000000   0.023077     0.00511509
        5           0.030769   0.000000   0.030769     0.00511509
        6           0.038462   0.000000   0.038462     0.00511509
        7           0.046154   0.000000   0.046154     0.00511509
        8           0.053846   0.000000   0.053846     0.00511509
        9           0.061538   0.000000   0.061538     0.00511509
       10           0.069231   0.000000   0.069231     0.00511509
       11           0.076923   0.000000   0.076923     0.00511509
       12           0.084615   0.000000   0.084615     0.00511509
       13           0.092308   0.000000   0.092308     0.00511509
       14           0.100000   0.000000   0.100000     0.00511509
       15           0.107692   0.000000   0.107692     0.00511509
       16           0.115385   0.000000   0.115385     0.00511509
       17           0.123077   0.000000   0.123077     0.00511509
       18           0.130769   0.000000   0.130769     0.00511509
       19           0.138462   0.000000   0.138462     0.00511509
       20           0.146154   0.000000   0.146154     0.00511509
       21           0.153846   0.000000   0.153846     0.00511509
       22           0.161538   0.000000   0.161538     0.00511509
       23           0.169231   0.000000   0.169231     0.00511509
       24           0.176923   0.000000   0.176923     0.00511509
       25           0.184615   0.000000   0.184615     0.00511509
       26           0.192308   0.000000   0.192308     0.00511509
       27           0.200000   0.000000   0.200000     0.00511509
       28           0.207692   0.000000   0.207692     0.00511509
       29           0.215385   0.000000   0.215385     0.00511509
       30           0.223077   0.000000   0.223077     0.00511509
       31           0.230769   0.000000   0.230769     0.00511509
       32           0.238462   0.000000   0.238462     0.00511509
       33           0.246154   0.000000   0.246154     0.00511509
       34           0.253846   0.000000   0.253846     0.00511509
       35           0.261538   0.000000   0.261538     0.00511509
       36           0.269231   0.000000   0.269231     0.00511509
       37           0.276923   0.000000   0.276923     0.00511509
       38           0.284615   0.000000   0.284615     0.00511509
       39           0.292308   0.000000   0.292308     0.00511509
       40           0.300000   0.000000   0.300000     0.00511509
       41           0.307692   0.000000   0.307692     0.00511509
       42           0.315385   0.000000   0.315385     0.00511509
       43           0.323077   0.000000   0.323077     0.00511509
       44           0.330769   0.000000   0.330769     0.00511509
       45           0.338462   0.000000   0.338462     0.00511509
       46           0.346154   0.000000   0.346154     0.00511509
       47           0.353846   0.000000   0.353846     0.00511509
       48           0.361538   0.000000   0.361538     0.00511509
       49           0.369231   0.000000   0.369231     0.00511509
       50           0.376923   0.000000   0.376923     0.00511509
       51           0.384615   0.000000   0.384615     0.00511509
       52           0.392308   0.000000   0.392308     0.00511509
       53           0.400000   0.000000   0.400000     0.00511509
       54           0.407692   0.000000   0.407692     0.00511509
       55           0.415385   0.000000   0.415385     0.00511509
       56           0.423077   0.000000   0.423077     0.00511509
       57           0.430769   0.000000   0.430769     0.00511509
       58           0.438462   0.000000   0.438462     0.00511509
       59           0.446154   0.000000   0.446154     0.00511509
       60           0.453846   0.000000   0.453846     0.00511509
       61           0.461538   0.000000   0.461538     0.00511509
       62           0.469231   0.000000   0.469231     0.00511509
       63           0.476923   0.000000   0.476923     0.00511509
       64           0.484615   0.000000   0.484615     0.00511509
       65           0.492308   0.000000   0.492308     0.00511509
       66           0.500000   0.000000   0.500000     0.00511509
       67           0.500000   0.016667   0.516667     0.00511509
       68           0.500000   0.033333   0.533333     0.00511509
       69           0.500000   0.050000   0.550000     0.00511509
       70           0.500000   0.066667   0.566667     0.00511509
       71           0.500000   0.083333   0.583333     0.00511509
       72           0.500000   0.100000   0.600000     0.00511509
       73           0.500000   0.116667   0.616667     0.00511509
       74           0.500000   0.133333   0.633333     0.00511509
       75           0.500000   0.150000   0.650000     0.00511509
       76           0.500000   0.166667   0.666667     0.00511509
       77           0.500000   0.183333   0.683333     0.00511509
       78           0.500000   0.200000   0.700000     0.00511509
       79           0.500000   0.216667   0.716667     0.00511509
       80           0.500000   0.233333   0.733333     0.00511509
       81           0.500000   0.250000   0.750000     0.00511509
       82           0.458333   0.291667   0.750000     0.00511509
       83           0.416667   0.333333   0.750000     0.00511509
       84           0.375000   0.375000   0.750000     0.00511509
       85           0.371622   0.371622   0.743243     0.00511509
       86           0.368243   0.368243   0.736486     0.00511509
       87           0.364865   0.364865   0.729730     0.00511509
       88           0.361486   0.361486   0.722973     0.00511509
       89           0.358108   0.358108   0.716216     0.00511509
       90           0.354730   0.354730   0.709459     0.00511509
       91           0.351351   0.351351   0.702703     0.00511509
       92           0.347973   0.347973   0.695946     0.00511509
       93           0.344595   0.344595   0.689189     0.00511509
       94           0.341216   0.341216   0.682432     0.00511509
       95           0.337838   0.337838   0.675676     0.00511509
       96           0.334459   0.334459   0.668919     0.00511509
       97           0.331081   0.331081   0.662162     0.00511509
       98           0.327703   0.327703   0.655405     0.00511509
       99           0.324324   0.324324   0.648649     0.00511509
      100           0.320946   0.320946   0.641892     0.00511509
      101           0.317568   0.317568   0.635135     0.00511509
      102           0.314189   0.314189   0.628378     0.00511509
      103           0.310811   0.310811   0.621622     0.00511509
      104           0.307432   0.307432   0.614865     0.00511509
      105           0.304054   0.304054   0.608108     0.00511509
      106           0.300676   0.300676   0.601351     0.00511509
      107           0.297297   0.297297   0.594595     0.00511509
      108           0.293919   0.293919   0.587838     0.00511509
      109           0.290541   0.290541   0.581081     0.00511509
      110           0.287162   0.287162   0.574324     0.00511509
      111           0.283784   0.283784   0.567568     0.00511509
      112           0.280405   0.280405   0.560811     0.00511509
      113           0.277027   0.277027   0.554054     0.00511509
      114           0.273649   0.273649   0.547297     0.00511509
      115           0.270270   0.270270   0.540541     0.00511509
      116           0.266892   0.266892   0.533784     0.00511509
      117           0.263514   0.263514   0.527027     0.00511509
      118           0.260135   0.260135   0.520270     0.00511509
      119           0.256757   0.256757   0.513514     0.00511509
      120           0.253378   0.253378   0.506757     0.00511509
      121           0.250000   0.250000   0.500000     0.00511509
      122           0.246622   0.246622   0.493243     0.00511509
      123           0.243243   0.243243   0.486486     0.00511509
      124           0.239865   0.239865   0.479730     0.00511509
      125           0.236486   0.236486   0.472973     0.00511509
      126           0.233108   0.233108   0.466216     0.00511509
      127           0.229730   0.229730   0.459459     0.00511509
      128           0.226351   0.226351   0.452703     0.00511509
      129           0.222973   0.222973   0.445946     0.00511509
      130           0.219595   0.219595   0.439189     0.00511509
      131           0.216216   0.216216   0.432432     0.00511509
      132           0.212838   0.212838   0.425676     0.00511509
      133           0.209459   0.209459   0.418919     0.00511509
      134           0.206081   0.206081   0.412162     0.00511509
      135           0.202703   0.202703   0.405405     0.00511509
      136           0.199324   0.199324   0.398649     0.00511509
      137           0.195946   0.195946   0.391892     0.00511509
      138           0.192568   0.192568   0.385135     0.00511509
      139           0.189189   0.189189   0.378378     0.00511509
      140           0.185811   0.185811   0.371622     0.00511509
      141           0.182432   0.182432   0.364865     0.00511509
      142           0.179054   0.179054   0.358108     0.00511509
      143           0.175676   0.175676   0.351351     0.00511509
      144           0.172297   0.172297   0.344595     0.00511509
      145           0.168919   0.168919   0.337838     0.00511509
      146           0.165541   0.165541   0.331081     0.00511509
      147           0.162162   0.162162   0.324324     0.00511509
      148           0.158784   0.158784   0.317568     0.00511509
      149           0.155405   0.155405   0.310811     0.00511509
      150           0.152027   0.152027   0.304054     0.00511509
      151           0.148649   0.148649   0.297297     0.00511509
      152           0.145270   0.145270   0.290541     0.00511509
      153           0.141892   0.141892   0.283784     0.00511509
      154           0.138514   0.138514   0.277027     0.00511509
      155           0.135135   0.135135   0.270270     0.00511509
      156           0.131757   0.131757   0.263514     0.00511509
      157           0.128378   0.128378   0.256757     0.00511509
      158           0.125000   0.125000   0.250000     0.00511509
      159           0.121622   0.121622   0.243243     0.00511509
      160           0.118243   0.118243   0.236486     0.00511509
      161           0.114865   0.114865   0.229730     0.00511509
      162           0.111486   0.111486   0.222973     0.00511509
      163           0.108108   0.108108   0.216216     0.00511509
      164           0.104730   0.104730   0.209459     0.00511509
      165           0.101351   0.101351   0.202703     0.00511509
      166           0.097973   0.097973   0.195946     0.00511509
      167           0.094595   0.094595   0.189189     0.00511509
      168           0.091216   0.091216   0.182432     0.00511509
      169           0.087838   0.087838   0.175676     0.00511509
      170           0.084459   0.084459   0.168919     0.00511509
      171           0.081081   0.081081   0.162162     0.00511509
      172           0.077703   0.077703   0.155405     0.00511509
      173           0.074324   0.074324   0.148649     0.00511509
      174           0.070946   0.070946   0.141892     0.00511509
      175           0.067568   0.067568   0.135135     0.00511509
      176           0.064189   0.064189   0.128378     0.00511509
      177           0.060811   0.060811   0.121622     0.00511509
      178           0.057432   0.057432   0.114865     0.00511509
      179           0.054054   0.054054   0.108108     0.00511509
      180           0.050676   0.050676   0.101351     0.00511509
      181           0.047297   0.047297   0.094595     0.00511509
      182           0.043919   0.043919   0.087838     0.00511509
      183           0.040541   0.040541   0.081081     0.00511509
      184           0.037162   0.037162   0.074324     0.00511509
      185           0.033784   0.033784   0.067568     0.00511509
      186           0.030405   0.030405   0.060811     0.00511509
      187           0.027027   0.027027   0.054054     0.00511509
      188           0.023649   0.023649   0.047297     0.00511509
      189           0.020270   0.020270   0.040541     0.00511509
      190           0.016892   0.016892   0.033784     0.00511509
      191           0.013514   0.013514   0.027027     0.00511509
      192           0.010135   0.010135   0.020270     0.00511509
      193           0.006757   0.006757   0.013514     0.00511509
      194           0.003378   0.003378   0.006757     0.00511509
      195          -0.000000  -0.000000  -0.000000     0.00511509
      196           0.500000   0.500000   0.500000     0.00255754
--------------------------------------------------------------------------------


********************************************************************************
*  General input information                                                   *
********************************************************************************

  Species output for all configurations : 

--------------------------------------------------------------------------------
  Species    Type    Atomic    Atomic    Charge       Radii (Angs)     Library
                     Number     Mass       (e)     Cova   Ionic  VDW   Symbol
--------------------------------------------------------------------------------
    Cu       Core       29      63.55   2.000000   1.520  0.000  1.540          
    Ge       Core       32      72.61   2.000000   1.170  0.000  1.750          
    S        Core       16      32.07   1.357000   1.020  0.000  1.700          
    S        Shell      16       0.00  -3.357000   1.020  0.000  0.000          
--------------------------------------------------------------------------------


  Lattice summation method               =    Ewald          (3-D)
                                         =    Parry          (2-D)
                                         =    Saunders et al (1-D)
  Accuracy factor for lattice sums       =   12.000


  Time limit = Infinity

  Maximum range for interatomic potentials =    100000.000000 Angstroms

  General interatomic potentials :

--------------------------------------------------------------------------------
Atom  Types   Potential      Parameter       Value         Units   Cutoffs(Ang)
  1     2                                                            Min /  Max 
--------------------------------------------------------------------------------
Cu   c S    s Buckingham    Buckingham A     213.20000    eV        0.000 15.000
                            Buckingham rho  0.47500000    Ang       
                            Buckingham C     0.0000000    eV*Ang^6  
--------------------------------------------------------------------------------
Ge   c S    s Buckingham    Buckingham A     213.20000    eV        0.000 15.000
                            Buckingham rho  0.47500000    Ang       
                            Buckingham C     0.0000000    eV*Ang^6  
--------------------------------------------------------------------------------
Cu   c Ge   c Buckingham    Buckingham A     213.20000    eV        0.000 15.000
                            Buckingham rho  0.47500000    Ang       
                            Buckingham C     0.0000000    eV*Ang^6  
--------------------------------------------------------------------------------
S    s S    s Buckingham    Buckingham A     11413.090    eV        0.000 15.000
                            Buckingham rho  0.15300000    Ang       
                            Buckingham C     0.0000000    eV*Ang^6  
--------------------------------------------------------------------------------
Cu   c S    s Lennard       Lennard-Jones A  664.35000    eV*Ang^m  0.000 15.000
                            Lennard-Jones B  10.540000    eV*Ang^n  
                            Exponent m         9          None
                            Exponent n         6          None
--------------------------------------------------------------------------------
Ge   c S    s Lennard       Lennard-Jones A  213.20000    eV*Ang^m  0.000  0.000
                            Lennard-Jones B 0.47500000    eV*Ang^n  
                            Exponent m         9          None
                            Exponent n         6          None
--------------------------------------------------------------------------------
Cu   c Ge   c Lennard       Lennard-Jones A  213.20000    eV*Ang^m  0.000  0.000
                            Lennard-Jones B 0.47500000    eV*Ang^n  
                            Exponent m         9          None
                            Exponent n         6          None
--------------------------------------------------------------------------------
S    s S    s Lennard       Lennard-Jones A  0.0000000    eV*Ang^m  0.000 15.000
                            Lennard-Jones B  129.18000    eV*Ang^n  
                            Exponent m         9          None
                            Exponent n         6          None
--------------------------------------------------------------------------------
S    c S    s Spring (c-s)  Spring k 2       27.690000    eV*Ang^-2 0.000  0.800
                            Spring k 4       0.0000000    eV*Ang^-4 
--------------------------------------------------------------------------------

********************************************************************************
*  Output for configuration   1                                                *
********************************************************************************


  Components of energy : 

--------------------------------------------------------------------------------
  Interatomic potentials     =          46.18450328 eV    
  Monopole - monopole (real) =        -101.42530714 eV    
  Monopole - monopole (recip)=        -144.39477037 eV    
  Monopole - monopole (total)=        -245.82007751 eV    
--------------------------------------------------------------------------------
  Total lattice energy       =        -199.63557423 eV    
--------------------------------------------------------------------------------
  Total lattice energy       =          -19261.7812 kJ/(mole unit cells)
--------------------------------------------------------------------------------

  Born effective charge tensors : 

-------------------------------------------------------------------------------
  Atom             x           y             z
-------------------------------------------------------------------------------
    1 Cu    x       1.6764     -0.0968      0.0274
            y      -0.0663      1.6531      0.0661
            z      -0.0232     -0.1518      1.7169
-------------------------------------------------------------------------------
    2 Cu    x       1.6847      0.0322      0.1188
            y       0.0204      1.6573     -0.0005
            z       0.0361      0.2803      1.6151
-------------------------------------------------------------------------------
    3 Cu    x       1.6757     -0.0972     -0.0272
            y      -0.0671      1.6531     -0.0657
            z       0.0234      0.1518      1.7161
-------------------------------------------------------------------------------
    4 Cu    x       1.6848      0.0322     -0.1194
            y       0.0204      1.6551     -0.0001
            z      -0.0366     -0.2806      1.6156
-------------------------------------------------------------------------------
    5 S     x      -2.6410      0.1113      0.2645
            y       0.1632     -2.2313      0.2422
            z       0.3010      0.2428     -2.3923
-------------------------------------------------------------------------------
    6 S     x      -1.8715     -0.1960     -0.3216
            y      -0.1952     -1.9008     -0.3954
            z      -0.3590     -0.3753     -2.3274
-------------------------------------------------------------------------------
    7 S     x      -1.7154     -0.0147     -0.0051
            y      -0.0615     -2.6164      0.0169
            z       0.0140     -0.0210     -1.7602
-------------------------------------------------------------------------------
    8 S     x      -2.6412      0.1111     -0.2643
            y       0.1633     -2.2316     -0.2418
            z      -0.3009     -0.2425     -2.3929
-------------------------------------------------------------------------------
    9 S     x      -1.8714     -0.1960      0.3216
            y      -0.1951     -1.8989      0.3953
            z       0.3591      0.3752     -2.3269
-------------------------------------------------------------------------------
   10 S     x      -1.7156     -0.0147      0.0049
            y      -0.0615     -2.6152     -0.0173
            z      -0.0143      0.0207     -1.7602
-------------------------------------------------------------------------------
   11 Ge    x       2.8669      0.1642     -0.0073
            y       0.1396      3.4384      0.1007
            z       0.1894     -0.0000      3.1478
-------------------------------------------------------------------------------
   12 Ge    x       2.8675      0.1644      0.0076
            y       0.1396      3.4371     -0.1004
            z      -0.1891      0.0004      3.1483
-------------------------------------------------------------------------------




  Elastic Constant Matrix: (Units=GPa)

-------------------------------------------------------------------------------
  Indices      1         2         3         4         5         6    
-------------------------------------------------------------------------------
       1    269.9612  -52.9181   30.8991    0.1403    0.2641  -72.1926
       2    -52.9181  223.9304   36.9693   -0.0795   -0.1485   26.6177
       3     30.8991   36.9693  173.1096    0.0318    0.0663   37.7471
       4      0.1403   -0.0795    0.0318    6.8913  -23.3809   -0.0417
       5      0.2641   -0.1485    0.0663  -23.3809  -40.6524   -0.0810
       6    -72.1926   26.6177   37.7471   -0.0417   -0.0810   51.7996
-------------------------------------------------------------------------------

  Elastic Constant Tensor Eigenvalues: (Units=GPa)

-------------------------------------------------------------------------------
     1 =   -50.2241     2 =    16.4626     3 =    16.9548
     4 =   145.9571     5 =   230.4544     6 =   325.4350
-------------------------------------------------------------------------------
  No. of non-positive eigenvalues = 1 => system is elastically unstable
-------------------------------------------------------------------------------


  Elastic Compliance Matrix: (Units=1/GPa)

-------------------------------------------------------------------------------
  Indices      1         2         3         4         5         6    
-------------------------------------------------------------------------------
       1    0.008458  0.001053 -0.004978 -0.000001  0.000014  0.014875
       2    0.001053  0.004936 -0.001199 -0.000001 -0.000012 -0.000195
       3   -0.004978 -0.001199  0.009868  0.000004  0.000013 -0.013512
       4   -0.000001 -0.000001  0.000004  0.049168 -0.028278 -0.000008
       5    0.000014 -0.000012  0.000013 -0.028278 -0.008335 -0.000020
       6    0.014875 -0.000195 -0.013512 -0.000008 -0.000020  0.049983
-------------------------------------------------------------------------------

  Mechanical properties :

-------------------------------------------------------------------------------
  Convention :                    Reuss         Voigt         Hill
-------------------------------------------------------------------------------
  Bulk  Modulus (GPa)     =      76.85280      77.43356      77.14318
  Shear Modulus (GPa)     =      38.86102      47.07776      42.96939
-------------------------------------------------------------------------------
  Velocity S-wave (km/s)  =       2.98384       3.28417       3.13760
  Velocity P-wave (km/s)  =       5.42941       5.66758       5.54977
-------------------------------------------------------------------------------
  Compressibility (1/GPa) =    0.01301189
-------------------------------------------------------------------------------
  Stress axis :                     x             y             z
-------------------------------------------------------------------------------
  Youngs Moduli (GPa)     =     118.23100     202.60919     101.34072
-------------------------------------------------------------------------------
  Poissons Ratio (x)      =                    -0.21325       0.50447
  Poissons Ratio (y)      =      -0.12444                     0.12154
  Poissons Ratio (z)      =       0.58855       0.24299
-------------------------------------------------------------------------------


  Piezoelectric Strain Matrix: (Units=C/m**2)

-------------------------------------------------------------------------------
  Indices      1         2         3         4         5         6    
-------------------------------------------------------------------------------
       x    51.31056 -24.10116 -22.60511   0.02810   0.05359 -24.37399
       y   -59.26948  55.89601  -9.03871  -0.07174  -0.13455  15.38071
       z    -0.18188   0.10700  -0.04290  22.17724  43.58033   0.05533
-------------------------------------------------------------------------------


  Piezoelectric Stress Matrix: (Units=10**-11 C/N)

-------------------------------------------------------------------------------
  Indices      1         2         3         4         5         6    
-------------------------------------------------------------------------------
       x    15.85949  -3.30765 -12.02309  -0.00361  -0.00539 -14.49012
       y   -16.86984  22.13356  -6.90163   0.00956   0.12410  -0.16263
       z     0.01947  -0.01752   0.02512 -14.19743 -99.03641  -0.04161
-------------------------------------------------------------------------------


  Static dielectric constant tensor : 

-------------------------------------------------------------------------------
              x         y         z
-------------------------------------------------------------------------------
       x    -8.58121   9.89332   0.02668
       y     9.89332 -16.43622  -0.06550
       z     0.02668  -0.06550  25.17180
--------------------------------------------------------------------------------

  High frequency dielectric constant tensor : 

-------------------------------------------------------------------------------
              x         y         z
-------------------------------------------------------------------------------
       x     3.72457   0.02791   0.00002
       y     0.02791   3.87078   0.00003
       z     0.00002   0.00003   3.79457
-------------------------------------------------------------------------------

  Static refractive indices : 

-------------------------------------------------------------------------------
    1 =   -4.81178      2 =   -1.36541      3 =    5.01716
-------------------------------------------------------------------------------

  High frequency refractive indices : 

-------------------------------------------------------------------------------
    1 =    1.92858      2 =    1.94797      3 =    1.96874
-------------------------------------------------------------------------------


  Phonon Calculation : 

  K direction for n-a correction at gamma =  1.00000  1.00000  1.00000

  Number of k points for this configuration =      196

--------------------------------------------------------------------------------
  K point      1 =   0.000000  0.000000  0.000000  Weight =    0.005
--------------------------------------------------------------------------------

  Frequencies (cm-1) [NB: Negative implies an imaginary mode]:

 -151.97 -138.69 -112.00  -80.37  -29.04   -0.00   -0.00   -0.00   81.21
   83.00   88.17  107.22  117.41  141.95  150.31  164.61  178.65  187.26
  198.34  213.53  225.71  243.31  249.52  257.51  259.57  265.13  280.36
  281.01  284.18  286.41  292.11  294.79  300.34  304.79  306.40  354.29


--------------------------------------------------------------------------------
  K point      2 =   0.007692  0.000000  0.007692  Weight =    0.005
--------------------------------------------------------------------------------

  Frequencies (cm-1) [NB: Negative implies an imaginary mode]:

 -152.94 -136.68 -114.70  -85.56  -22.54    1.58    2.74    6.35   81.79
   83.14   97.08  110.96  117.69  141.57  151.19  159.18  178.53  187.56
  195.67  213.50  226.05  243.69  249.17  257.43  260.61  266.09  280.56
  280.88  284.19  286.01  292.02  294.59  300.31  304.67  306.47  354.31


--------------------------------------------------------------------------------
  K point      3 =   0.015385  0.000000  0.015385  Weight =    0.005
--------------------------------------------------------------------------------

  Frequencies (cm-1) [NB: Negative implies an imaginary mode]:

 -152.93 -136.69 -114.72  -85.65  -23.91    3.15    5.47   11.96   81.92
   83.18   97.09  110.80  117.81  141.36  151.33  159.18  178.49  187.33
  195.75  213.45  226.06  243.67  249.21  257.31  260.61  266.14  280.54
  280.90  284.21  286.06  292.02  294.62  300.32  304.69  306.47  354.29


--------------------------------------------------------------------------------
  K point      4 =   0.023077  0.000000  0.023077  Weight =    0.005
--------------------------------------------------------------------------------

  Frequencies (cm-1) [NB: Negative implies an imaginary mode]:

 -152.92 -136.70 -114.75  -85.80  -25.44    4.73    8.18   16.83   82.13
   83.25   97.10  110.54  118.01  141.03  151.53  159.19  178.42  186.96
  195.87  213.37  226.08  243.64  249.27  257.13  260.62  266.24  280.52
  280.93  284.24  286.13  292.01  294.67  300.33  304.73  306.48  354.25


--------------------------------------------------------------------------------
  K point      5 =   0.030769  0.000000  0.030769  Weight =    0.005
--------------------------------------------------------------------------------

  Frequencies (cm-1) [NB: Negative implies an imaginary mode]:

 -152.90 -136.72 -114.80  -86.00  -26.88    6.29   10.88   21.18   82.39
   83.38   97.11  110.20  118.26  140.60  151.79  159.20  178.33  186.47
  196.02  213.25  226.10  243.60  249.35  256.87  260.65  266.37  280.50
  280.97  284.28  286.22  292.00  294.74  300.35  304.79  306.49  354.20


--------------------------------------------------------------------------------
  K point      6 =   0.038462  0.000000  0.038462  Weight =    0.005
--------------------------------------------------------------------------------

  Frequencies (cm-1) [NB: Negative implies an imaginary mode]:

 -152.87 -136.74 -114.86  -86.25  -28.16    7.86   13.55   25.18   82.65
   83.62   97.13  109.79  118.56  140.10  152.06  159.22  178.20  185.88
  196.17  213.11  226.14  243.56  249.44  256.53  260.69  266.53  280.47
  281.01  284.34  286.35  291.99  294.82  300.38  304.87  306.50  354.13


--------------------------------------------------------------------------------
  K point      7 =   0.046154  0.000000  0.046154  Weight =    0.005
--------------------------------------------------------------------------------

  Frequencies (cm-1) [NB: Negative implies an imaginary mode]:

 -152.83 -136.77 -114.93  -86.55  -29.27    9.41   16.18   28.94   82.86
   84.01   97.16  109.33  118.89  139.55  152.34  159.25  178.04  185.21
  196.31  212.93  226.18  243.51  249.54  256.13  260.75  266.73  280.45
  281.06  284.40  286.49  291.98  294.92  300.41  304.96  306.51  354.05


--------------------------------------------------------------------------------
  K point      8 =   0.053846  0.000000  0.053846  Weight =    0.005
--------------------------------------------------------------------------------

  Frequencies (cm-1) [NB: Negative implies an imaginary mode]:

 -152.79 -136.80 -115.01  -86.89  -30.22   10.96   18.78   32.52   83.01
   84.55   97.18  108.83  119.24  138.97  152.60  159.29  177.85  184.47
  196.42  212.72  226.22  243.46  249.64  255.67  260.84  266.95  280.42
  281.12  284.47  286.66  291.97  295.03  300.45  305.06  306.53  353.95


--------------------------------------------------------------------------------
  K point      9 =   0.061538  0.000000  0.061538  Weight =    0.005
--------------------------------------------------------------------------------

  Frequencies (cm-1) [NB: Negative implies an imaginary mode]:

 -152.74 -136.84 -115.09  -87.27  -31.02   12.50   21.35   35.96   83.14
   85.21   97.21  108.30  119.60  138.38  152.82  159.35  177.62  183.68
  196.51  212.48  226.28  243.41  249.73  255.16  260.94  267.20  280.40
  281.18  284.54  286.84  291.97  295.14  300.50  305.18  306.57  353.84


--------------------------------------------------------------------------------
  K point     10 =   0.069231  0.000000  0.069231  Weight =    0.005
--------------------------------------------------------------------------------

  Frequencies (cm-1) [NB: Negative implies an imaginary mode]:

 -152.69 -136.88 -115.19  -87.68  -31.69   14.02   23.87   39.29   83.26
   85.97   97.24  107.75  119.96  137.79  152.99  159.42  177.35  182.86
  196.55  212.21  226.33  243.35  249.80  254.61  261.07  267.48  280.38
  281.26  284.62  287.04  291.96  295.26  300.56  305.31  306.62  353.72


--------------------------------------------------------------------------------
  K point     11 =   0.076923  0.000000  0.076923  Weight =    0.005
--------------------------------------------------------------------------------

  Frequencies (cm-1) [NB: Negative implies an imaginary mode]:

 -152.64 -136.93 -115.28  -88.12  -32.23   15.54   26.34   42.52   83.39
   86.81   97.26  107.19  120.33  137.21  153.11  159.50  177.03  182.02
  196.54  211.91  226.39  243.29  249.83  254.04  261.21  267.78  280.36
  281.34  284.71  287.25  291.96  295.38  300.62  305.44  306.69  353.58


--------------------------------------------------------------------------------
  K point     12 =   0.084615  0.000000  0.084615  Weight =    0.005
--------------------------------------------------------------------------------

  Frequencies (cm-1) [NB: Negative implies an imaginary mode]:

 -152.58 -136.98 -115.39  -88.59  -32.66   17.04   28.77   45.67   83.52
   87.71   97.28  106.64  120.69  136.66  153.17  159.60  176.65  181.17
  196.48  211.58  226.45  243.24  249.81  253.50  261.38  268.11  280.34
  281.45  284.80  287.47  291.96  295.50  300.70  305.56  306.79  353.42


--------------------------------------------------------------------------------
  K point     13 =   0.092308  0.000000  0.092308  Weight =    0.005
--------------------------------------------------------------------------------

  Frequencies (cm-1) [NB: Negative implies an imaginary mode]:

 -152.52 -137.05 -115.49  -89.07  -32.99   18.52   31.16   48.74   83.67
   88.66   97.28  106.12  121.03  136.13  153.17  159.70  176.20  180.35
  196.37  211.23  226.51  243.17  249.68  253.00  261.55  268.47  280.33
  281.56  284.90  287.69  291.96  295.60  300.78  305.67  306.93  353.25


--------------------------------------------------------------------------------
  K point     14 =   0.100000  0.000000  0.100000  Weight =    0.005
--------------------------------------------------------------------------------

  Frequencies (cm-1) [NB: Negative implies an imaginary mode]:

 -152.45 -137.11 -115.60  -89.57  -33.21   19.99   33.49   51.74   83.84
   89.65   97.26  105.63  121.36  135.64  153.12  159.81  175.65  179.58
  196.21  210.85  226.56  243.11  249.40  252.62  261.74  268.86  280.31
  281.69  285.00  287.91  291.97  295.70  300.88  305.77  307.11  353.07


--------------------------------------------------------------------------------
  K point     15 =   0.107692  0.000000  0.107692  Weight =    0.005
--------------------------------------------------------------------------------

  Frequencies (cm-1) [NB: Negative implies an imaginary mode]:

 -152.38 -137.19 -115.71  -90.08  -33.34   21.44   35.77   54.67   84.02
   90.67   97.22  105.21  121.67  135.19  153.01  159.90  175.00  178.87
  195.99  210.45  226.60  243.03  248.96  252.36  261.95  269.28  280.29
  281.84  285.11  288.14  291.99  295.79  300.99  305.85  307.34  352.87


--------------------------------------------------------------------------------
  K point     16 =   0.115385  0.000000  0.115385  Weight =    0.005
--------------------------------------------------------------------------------

  Frequencies (cm-1) [NB: Negative implies an imaginary mode]:

 -152.31 -137.27 -115.81  -90.60  -33.38   22.87   37.99   57.53   84.24
   91.69   97.16  104.88  121.96  134.78  152.85  159.98  174.24  178.23
  195.71  210.02  226.63  242.94  248.36  252.23  262.17  269.72  280.27
  282.01  285.22  288.36  292.02  295.86  301.11  305.92  307.60  352.65


--------------------------------------------------------------------------------
  K point     17 =   0.123077  0.000000  0.123077  Weight =    0.005
--------------------------------------------------------------------------------

  Frequencies (cm-1) [NB: Negative implies an imaginary mode]:

 -152.24 -137.36 -115.91  -91.13  -33.34   24.28   40.16   60.32   84.48
   92.68   97.08  104.67  122.23  134.43  152.65  160.04  173.39  177.67
  195.38  209.57  226.65  242.84  247.65  252.17  262.42  270.18  280.25
  282.19  285.34  288.58  292.06  295.92  301.25  305.98  307.91  352.43


--------------------------------------------------------------------------------
  K point     18 =   0.130769  0.000000  0.130769  Weight =    0.005
--------------------------------------------------------------------------------

  Frequencies (cm-1) [NB: Negative implies an imaginary mode]:

 -152.16 -137.46 -116.01  -91.67  -33.21   25.66   42.27   63.03   84.75
   93.58   97.03  104.58  122.46  134.12  152.41  160.07  172.46  177.16
  195.00  209.10  226.65  242.72  246.87  252.16  262.69  270.67  280.23
  282.38  285.46  288.79  292.11  295.96  301.39  306.04  308.24  352.18


--------------------------------------------------------------------------------
  K point     19 =   0.138462  0.000000  0.138462  Weight =    0.005
--------------------------------------------------------------------------------

  Frequencies (cm-1) [NB: Negative implies an imaginary mode]:

 -152.09 -137.56 -116.10  -92.21  -33.01   27.02   44.31   65.67   85.06
   94.28   97.12  104.65  122.67  133.86  152.13  160.06  171.49  176.69
  194.57  208.60  226.63  242.56  246.05  252.16  263.00  271.18  280.21
  282.60  285.58  288.99  292.17  295.99  301.55  306.10  308.60  351.92


--------------------------------------------------------------------------------
  K point     20 =   0.146154  0.000000  0.146154  Weight =    0.005
--------------------------------------------------------------------------------

  Frequencies (cm-1) [NB: Negative implies an imaginary mode]:

 -152.01 -137.67 -116.18  -92.76  -32.74   28.34   46.28   68.21   85.42
   94.66   97.47  104.87  122.86  133.65  151.82  160.00  170.49  176.26
  194.09  208.08  226.58  242.36  245.22  252.16  263.34  271.70  280.19
  282.82  285.70  289.18  292.25  296.00  301.71  306.16  308.98  351.65


--------------------------------------------------------------------------------
  K point     21 =   0.153846  0.000000  0.153846  Weight =    0.005
--------------------------------------------------------------------------------

  Frequencies (cm-1) [NB: Negative implies an imaginary mode]:

 -151.93 -137.79 -116.26  -93.30  -32.39   29.63   48.19   70.66   85.82
   94.71   98.08  105.26  123.02  133.48  151.48  159.89  169.48  175.84
  193.56  207.55  226.52  242.09  244.43  252.14  263.73  272.24  280.17
  283.06  285.83  289.35  292.34  295.99  301.88  306.24  309.38  351.36


--------------------------------------------------------------------------------
  K point     22 =   0.161538  0.000000  0.161538  Weight =    0.005
--------------------------------------------------------------------------------

  Frequencies (cm-1) [NB: Negative implies an imaginary mode]:

 -151.86 -137.92 -116.33  -93.85  -31.97   30.88   50.02   73.00   86.29
   94.58   98.82  105.82  123.15  133.36  151.11  159.71  168.49  175.43
  192.99  206.99  226.43  241.68  243.74  252.08  264.17  272.78  280.16
  283.30  285.96  289.51  292.46  295.97  302.05  306.33  309.80  351.05


--------------------------------------------------------------------------------
  K point     23 =   0.169231  0.000000  0.169231  Weight =    0.005
--------------------------------------------------------------------------------

  Frequencies (cm-1) [NB: Negative implies an imaginary mode]:

 -151.78 -138.05 -116.39  -94.40  -31.48   32.09   51.78   75.20   86.82
   94.41   99.58  106.53  123.27  133.27  150.72  159.45  167.53  175.04
  192.38  206.41  226.31  241.10  243.20  251.99  264.66  273.32  280.15
  283.56  286.09  289.66  292.59  295.94  302.22  306.44  310.24  350.73


--------------------------------------------------------------------------------
  K point     24 =   0.176923  0.000000  0.176923  Weight =    0.005
--------------------------------------------------------------------------------

  Frequencies (cm-1) [NB: Negative implies an imaginary mode]:

 -151.70 -138.19 -116.44  -94.94  -30.92   33.25   53.46   77.25   87.42
   94.28  100.33  107.37  123.36  133.22  150.30  159.11  166.62  174.65
  191.73  205.81  226.16  240.35  242.81  251.85  265.21  273.86  280.15
  283.82  286.22  289.79  292.74  295.89  302.39  306.57  310.68  350.40


--------------------------------------------------------------------------------
  K point     25 =   0.184615  0.000000  0.184615  Weight =    0.005
--------------------------------------------------------------------------------

  Frequencies (cm-1) [NB: Negative implies an imaginary mode]:

 -151.63 -138.34 -116.47  -95.49  -30.30   34.35   55.06   79.11   88.10
   94.24  101.05  108.32  123.45  133.19  149.86  158.68  165.78  174.26
  191.04  205.20  225.98  239.49  242.51  251.67  265.81  274.39  280.15
  284.09  286.36  289.92  292.92  295.84  302.54  306.72  311.14  350.04


--------------------------------------------------------------------------------
  K point     26 =   0.192308  0.000000  0.192308  Weight =    0.005
--------------------------------------------------------------------------------

  Frequencies (cm-1) [NB: Negative implies an imaginary mode]:

 -151.55 -138.50 -116.50  -96.03  -29.61   35.39   56.58   80.75   88.86
   94.35  101.77  109.37  123.53  133.18  149.40  158.14  165.02  173.88
  190.33  204.56  225.78  238.58  242.25  251.44  266.45  274.92  280.17
  284.36  286.49  290.03  293.11  295.78  302.69  306.90  311.61  349.68


--------------------------------------------------------------------------------
  K point     27 =   0.200000  0.000000  0.200000  Weight =    0.005
--------------------------------------------------------------------------------

  Frequencies (cm-1) [NB: Negative implies an imaginary mode]:

 -151.48 -138.66 -116.52  -96.56  -28.85   36.36   58.03   82.16   89.65
   94.66  102.50  110.47  123.61  133.20  148.92  157.51  164.34  173.50
  189.59  203.91  225.54  237.65  242.01  251.16  267.14  275.43  280.19
  284.62  286.63  290.14  293.31  295.72  302.82  307.12  312.08  349.30


--------------------------------------------------------------------------------
  K point     28 =   0.207692  0.000000  0.207692  Weight =    0.005
--------------------------------------------------------------------------------

  Frequencies (cm-1) [NB: Negative implies an imaginary mode]:

 -151.40 -138.84 -116.52  -97.10  -28.02   37.25   59.40   83.33   90.46
   95.19  103.26  111.60  123.70  133.23  148.43  156.79  163.74  173.12
  188.82  203.24  225.27  236.70  241.77  250.84  267.87  275.91  280.23
  284.88  286.78  290.24  293.53  295.66  302.93  307.36  312.56  348.90


--------------------------------------------------------------------------------
  K point     29 =   0.215385  0.000000  0.215385  Weight =    0.005
--------------------------------------------------------------------------------

  Frequencies (cm-1) [NB: Negative implies an imaginary mode]:

 -151.33 -139.02 -116.52  -97.63  -27.11   38.07   60.71   84.29   91.26
   95.95  104.07  112.76  123.80  133.27  147.91  156.00  163.21  172.74
  188.04  202.55  224.98  235.76  241.54  250.48  268.63  276.38  280.29
  285.14  286.93  290.34  293.75  295.60  303.03  307.63  313.04  348.49


--------------------------------------------------------------------------------
  K point     30 =   0.223077  0.000000  0.223077  Weight =    0.005
--------------------------------------------------------------------------------

  Frequencies (cm-1) [NB: Negative implies an imaginary mode]:

 -151.26 -139.20 -116.50  -98.16  -26.13   38.79   61.97   85.06   92.05
   96.86  104.95  113.90  123.92  133.32  147.39  155.17  162.73  172.35
  187.23  201.85  224.65  234.82  241.30  250.08  269.41  276.81  280.37
  285.38  287.09  290.45  293.97  295.55  303.12  307.93  313.52  348.06


--------------------------------------------------------------------------------
  K point     31 =   0.230769  0.000000  0.230769  Weight =    0.005
--------------------------------------------------------------------------------

  Frequencies (cm-1) [NB: Negative implies an imaginary mode]:

 -151.19 -139.39 -116.47  -98.68  -25.07   39.41   63.18   85.70   92.86
   97.85  105.91  115.03  124.08  133.39  146.85  154.32  162.29  171.96
  186.42  201.13  224.30  233.90  241.06  249.64  270.21  277.21  280.48
  285.60  287.27  290.56  294.19  295.53  303.19  308.26  314.01  347.62


--------------------------------------------------------------------------------
  K point     32 =   0.238462  0.000000  0.238462  Weight =    0.005
--------------------------------------------------------------------------------

  Frequencies (cm-1) [NB: Negative implies an imaginary mode]:

 -151.11 -139.59 -116.42  -99.20  -23.92   39.94   64.36   86.24   93.71
   98.85  106.96  116.11  124.28  133.47  146.30  153.45  161.88  171.57
  185.60  200.39  223.92  232.99  240.82  249.17  271.02  277.57  280.62
  285.79  287.47  290.68  294.38  295.54  303.26  308.61  314.49  347.16


--------------------------------------------------------------------------------
  K point     33 =   0.246154  0.000000  0.246154  Weight =    0.005
--------------------------------------------------------------------------------

  Frequencies (cm-1) [NB: Negative implies an imaginary mode]:

 -151.04 -139.80 -116.37  -99.71  -22.66   40.37   65.51   86.72   94.60
   99.80  108.08  117.12  124.54  133.58  145.75  152.59  161.50  171.16
  184.77  199.64  223.52  232.10  240.56  248.67  271.82  277.88  280.78
  285.96  287.69  290.80  294.51  295.62  303.31  308.98  314.98  346.69


--------------------------------------------------------------------------------
  K point     34 =   0.253846  0.000000  0.253846  Weight =    0.005
--------------------------------------------------------------------------------

  Frequencies (cm-1) [NB: Negative implies an imaginary mode]:

 -150.97 -140.01 -116.30 -100.23  -21.30   40.69   66.66   87.16   95.53
  100.70  109.24  118.05  124.89  133.70  145.19  151.74  161.13  170.75
  183.95  198.87  223.09  231.24  240.30  248.15  272.62  278.15  280.99
  286.10  287.95  290.94  294.59  295.77  303.36  309.37  315.46  346.20


--------------------------------------------------------------------------------
  K point     35 =   0.261538  0.000000  0.261538  Weight =    0.005
--------------------------------------------------------------------------------

  Frequencies (cm-1) [NB: Negative implies an imaginary mode]:

 -150.90 -140.22 -116.22 -100.73  -19.79   40.90   67.80   87.58   96.48
  101.53  110.43  118.88  125.34  133.86  144.64  150.92  160.77  170.31
  183.13  198.09  222.64  230.39  240.04  247.59  273.39  278.38  281.22
  286.21  288.23  291.08  294.62  295.99  303.40  309.77  315.94  345.69


--------------------------------------------------------------------------------
  K point     36 =   0.269231  0.000000  0.269231  Weight =    0.005
--------------------------------------------------------------------------------

  Frequencies (cm-1) [NB: Negative implies an imaginary mode]:

 -150.82 -140.44 -116.13 -101.23  -18.13   41.02   68.95   88.00   97.45
  102.32  111.58  119.59  125.90  134.05  144.11  150.13  160.42  169.87
  182.32  197.30  222.17  229.57  239.77  247.02  274.13  278.57  281.48
  286.30  288.54  291.24  294.62  296.25  303.45  310.19  316.41  345.18


--------------------------------------------------------------------------------
  K point     37 =   0.276923  0.000000  0.276923  Weight =    0.005
--------------------------------------------------------------------------------

  Frequencies (cm-1) [NB: Negative implies an imaginary mode]:

 -150.75 -140.67 -116.02 -101.73  -16.26   41.05   70.11   88.42   98.39
  103.09  112.67  120.17  126.57  134.28  143.60  149.38  160.08  169.40
  181.53  196.50  221.68  228.77  239.49  246.43  274.84  278.73  281.76
  286.37  288.88  291.40  294.60  296.54  303.50  310.61  316.88  344.64


--------------------------------------------------------------------------------
  K point     38 =   0.284615  0.000000  0.284615  Weight =    0.005
--------------------------------------------------------------------------------

  Frequencies (cm-1) [NB: Negative implies an imaginary mode]:

 -150.67 -140.90 -115.91 -102.22  -14.12   40.98   71.29   88.85   99.31
  103.84  113.66  120.65  127.34  134.55  143.12  148.66  159.76  168.91
  180.77  195.69  221.18  228.00  239.21  245.82  275.49  278.87  282.06
  286.42  289.23  291.58  294.57  296.86  303.55  311.04  317.35  344.09


--------------------------------------------------------------------------------
  K point     39 =   0.292308  0.000000  0.292308  Weight =    0.005
--------------------------------------------------------------------------------

  Frequencies (cm-1) [NB: Negative implies an imaginary mode]:

 -150.59 -141.13 -115.78 -102.71  -11.55   40.83   72.49   89.29  100.17
  104.61  114.52  121.05  128.19  134.86  142.70  148.00  159.44  168.40
  180.02  194.87  220.67  227.24  238.92  245.19  276.10  279.00  282.35
  286.46  289.60  291.78  294.55  297.18  303.62  311.48  317.81  343.53


--------------------------------------------------------------------------------
  K point     40 =   0.300000  0.000000  0.300000  Weight =    0.005
--------------------------------------------------------------------------------

  Frequencies (cm-1) [NB: Negative implies an imaginary mode]:

 -150.51 -141.36 -115.65 -103.18   -8.20   40.61   73.71   89.74  100.96
  105.41  115.23  121.39  129.08  135.19  142.34  147.38  159.13  167.87
  179.32  194.04  220.15  226.51  238.63  244.56  276.63  279.13  282.65
  286.49  289.97  292.00  294.53  297.51  303.70  311.91  318.26  342.95


--------------------------------------------------------------------------------
  K point     41 =   0.307692  0.000000  0.307692  Weight =    0.005
--------------------------------------------------------------------------------

  Frequencies (cm-1) [NB: Negative implies an imaginary mode]:

 -150.43 -141.59 -115.51 -103.66   -1.06   40.31   74.95   90.20  101.67
  106.24  115.80  121.68  129.99  135.54  142.07  146.84  158.84  167.31
  178.64  193.22  219.64  225.80  238.34  243.92  277.10  279.25  282.94
  286.52  290.34  292.24  294.53  297.84  303.80  312.35  318.70  342.35


--------------------------------------------------------------------------------
  K point     42 =   0.315385  0.000000  0.315385  Weight =    0.005
--------------------------------------------------------------------------------

  Frequencies (cm-1) [NB: Negative implies an imaginary mode]:

 -150.34 -141.83 -115.35 -104.12    8.04   39.96   76.20   90.67  102.31
  107.10  116.22  121.93  130.87  135.87  141.89  146.38  158.56  166.73
  178.01  192.38  219.12  225.10  238.04  243.27  277.50  279.38  283.22
  286.54  290.70  292.51  294.54  298.16  303.93  312.78  319.14  341.74


--------------------------------------------------------------------------------
  K point     43 =   0.323077  0.000000  0.323077  Weight =    0.005
--------------------------------------------------------------------------------

  Frequencies (cm-1) [NB: Negative implies an imaginary mode]:

 -150.25 -142.07 -115.19 -104.58   11.39   39.57   77.47   91.16  102.87
  107.98  116.52  122.15  131.68  136.19  141.81  146.05  158.31  166.12
  177.43  191.55  218.61  224.42  237.74  242.62  277.83  279.51  283.49
  286.57  291.03  292.81  294.58  298.48  304.09  313.21  319.57  341.11


--------------------------------------------------------------------------------
  K point     44 =   0.330769  0.000000  0.330769  Weight =    0.005
--------------------------------------------------------------------------------

  Frequencies (cm-1) [NB: Negative implies an imaginary mode]:

 -150.16 -142.30 -115.02 -105.02   13.91   39.12   78.75   91.64  103.36
  108.87  116.73  122.32  132.36  136.48  141.78  145.88  158.08  165.49
  176.90  190.72  218.11  223.75  237.45  241.97  278.09  279.65  283.75
  286.58  291.34  293.12  294.66  298.78  304.29  313.63  319.98  340.48


--------------------------------------------------------------------------------
  K point     45 =   0.338462  0.000000  0.338462  Weight =    0.005
--------------------------------------------------------------------------------

  Frequencies (cm-1) [NB: Negative implies an imaginary mode]:

 -150.06 -142.54 -114.85 -105.46   15.99   38.64   80.04   92.13  103.81
  109.73  116.87  122.47  132.86  136.76  141.78  145.93  157.89  164.84
  176.42  189.89  217.62  223.09  237.15  241.32  278.29  279.79  283.99
  286.60  291.61  293.42  294.79  299.06  304.55  314.05  320.39  339.82


--------------------------------------------------------------------------------
  K point     46 =   0.346154  0.000000  0.346154  Weight =    0.005
--------------------------------------------------------------------------------

  Frequencies (cm-1) [NB: Negative implies an imaginary mode]:

 -149.96 -142.78 -114.67 -105.89   17.78   38.14   81.34   92.62  104.22
  110.56  116.97  122.58  133.15  137.05  141.78  146.19  157.75  164.18
  176.00  189.06  217.14  222.44  236.85  240.68  278.45  279.91  284.22
  286.62  291.86  293.67  294.99  299.31  304.86  314.45  320.78  339.15


--------------------------------------------------------------------------------
  K point     47 =   0.353846  0.000000  0.353846  Weight =    0.005
--------------------------------------------------------------------------------

  Frequencies (cm-1) [NB: Negative implies an imaginary mode]:

 -149.85 -143.01 -114.48 -106.30   19.34   37.61   82.63   93.11  104.60
  111.32  117.08  122.66  133.23  137.29  141.80  146.64  157.67  163.51
  175.63  188.23  216.68  221.80  236.55  240.04  278.58  280.03  284.43
  286.64  292.09  293.86  295.28  299.54  305.24  314.85  321.16  338.47


--------------------------------------------------------------------------------
  K point     48 =   0.361538  0.000000  0.361538  Weight =    0.005
--------------------------------------------------------------------------------

  Frequencies (cm-1) [NB: Negative implies an imaginary mode]:

 -149.74 -143.24 -114.30 -106.70   20.71   37.07   83.92   93.60  104.97
  111.99  117.22  122.72  133.16  137.41  141.89  147.20  157.67  162.85
  175.33  187.40  216.23  221.17  236.26  239.42  278.68  280.12  284.63
  286.65  292.30  293.99  295.63  299.73  305.68  315.23  321.53  337.78


--------------------------------------------------------------------------------
  K point     49 =   0.369231  0.000000  0.369231  Weight =    0.005
--------------------------------------------------------------------------------

  Frequencies (cm-1) [NB: Negative implies an imaginary mode]:

 -149.63 -143.47 -114.11 -107.09   21.93   36.52   85.20   94.08  105.33
  112.55  117.42  122.77  132.96  137.38  142.08  147.83  157.74  162.22
  175.08  186.58  215.81  220.54  235.97  238.82  278.76  280.19  284.81
  286.66  292.51  294.08  296.01  299.89  306.20  315.59  321.88  337.07


--------------------------------------------------------------------------------
  K point     50 =   0.376923  0.000000  0.376923  Weight =    0.005
--------------------------------------------------------------------------------

  Frequencies (cm-1) [NB: Negative implies an imaginary mode]:

 -149.51 -143.70 -113.92 -107.47   23.01   35.96   86.46   94.55  105.69
  112.96  117.71  122.81  132.69  137.18  142.33  148.45  157.89  161.67
  174.88  185.76  215.41  219.93  235.69  238.23  278.83  280.25  284.98
  286.67  292.70  294.15  296.40  300.01  306.77  315.95  322.22  336.35


--------------------------------------------------------------------------------
  K point     51 =   0.384615  0.000000  0.384615  Weight =    0.005
--------------------------------------------------------------------------------

  Frequencies (cm-1) [NB: Negative implies an imaginary mode]:

 -149.38 -143.93 -113.73 -107.83   23.97   35.41   87.70   95.00  106.05
  113.23  118.09  122.85  132.37  136.87  142.59  149.04  158.06  161.26
  174.73  184.95  215.03  219.32  235.41  237.66  278.89  280.28  285.14
  286.68  292.89  294.20  296.78  300.11  307.41  316.28  322.55  335.62


--------------------------------------------------------------------------------
  K point     52 =   0.392308  0.000000  0.392308  Weight =    0.005
--------------------------------------------------------------------------------

  Frequencies (cm-1) [NB: Negative implies an imaginary mode]:

 -149.25 -144.15 -113.54 -108.18   24.82   34.87   88.91   95.44  106.43
  113.38  118.53  122.90  132.01  136.48  142.80  149.56  158.18  161.10
  174.62  184.13  214.67  218.72  235.14  237.12  278.95  280.29  285.28
  286.68  293.07  294.25  297.14  300.18  308.10  316.60  322.85  334.89


--------------------------------------------------------------------------------
  K point     53 =   0.400000  0.000000  0.400000  Weight =    0.005
--------------------------------------------------------------------------------

  Frequencies (cm-1) [NB: Negative implies an imaginary mode]:

 -149.12 -144.38 -113.35 -108.51   25.56   34.33   90.08   95.86  106.82
  113.45  118.99  122.97  131.63  136.03  142.94  149.96  158.21  161.26
  174.55  183.32  214.34  218.14  234.88  236.60  279.00  280.29  285.42
  286.68  293.24  294.30  297.47  300.23  308.84  316.90  323.14  334.14


--------------------------------------------------------------------------------
  K point     54 =   0.407692  0.000000  0.407692  Weight =    0.005
--------------------------------------------------------------------------------

  Frequencies (cm-1) [NB: Negative implies an imaginary mode]:

 -148.98 -144.59 -113.17 -108.82   26.21   33.82   91.20   96.26  107.24
  113.46  119.44  123.07  131.25  135.56  143.00  150.20  158.21  161.70
  174.50  182.52  214.03  217.56  234.63  236.11  279.05  280.27  285.54
  286.68  293.41  294.34  297.78  300.26  309.61  317.18  323.41  333.38


--------------------------------------------------------------------------------
  K point     55 =   0.415385  0.000000  0.415385  Weight =    0.005
--------------------------------------------------------------------------------

  Frequencies (cm-1) [NB: Negative implies an imaginary mode]:

 -148.84 -144.81 -112.99 -109.12   26.78   33.32   92.27   96.64  107.69
  113.43  119.85  123.20  130.88  135.08  142.99  150.23  158.32  162.31
  174.48  181.72  213.75  217.00  234.39  235.66  279.09  280.25  285.66
  286.67  293.57  294.38  298.06  300.28  310.41  317.44  323.67  332.62


--------------------------------------------------------------------------------
  K point     56 =   0.423077  0.000000  0.423077  Weight =    0.005
--------------------------------------------------------------------------------

  Frequencies (cm-1) [NB: Negative implies an imaginary mode]:

 -148.69 -145.02 -112.81 -109.40   27.27   32.85   93.28   96.98  108.16
  113.38  120.18  123.35  130.54  134.60  142.93  150.03  158.60  163.01
  174.48  180.94  213.50  216.46  234.17  235.24  279.14  280.21  285.77
  286.66  293.72  294.41  298.32  300.28  311.23  317.67  323.91  331.86


--------------------------------------------------------------------------------
  K point     57 =   0.430769  0.000000  0.430769  Weight =    0.005
--------------------------------------------------------------------------------

  Frequencies (cm-1) [NB: Negative implies an imaginary mode]:

 -148.54 -145.23 -112.64 -109.66   27.69   32.40   94.21   97.30  108.66
  113.33  120.46  123.49  130.25  134.13  142.83  149.62  159.08  163.73
  174.48  180.16  213.28  215.94  233.96  234.85  279.18  280.17  285.86
  286.65  293.87  294.45  298.56  300.27  312.05  317.88  324.12  331.09


--------------------------------------------------------------------------------
  K point     58 =   0.438462  0.000000  0.438462  Weight =    0.005
--------------------------------------------------------------------------------

  Frequencies (cm-1) [NB: Negative implies an imaginary mode]:

 -148.38 -145.44 -112.48 -109.91   28.05   31.99   95.06   97.58  109.18
  113.28  120.67  123.59  130.05  133.68  142.72  149.05  159.71  164.44
  174.48  179.41  213.08  215.45  233.77  234.51  279.23  280.12  285.95
  286.64  294.00  294.48  298.77  300.25  312.88  318.07  324.32  330.33


--------------------------------------------------------------------------------
  K point     59 =   0.446154  0.000000  0.446154  Weight =    0.005
--------------------------------------------------------------------------------

  Frequencies (cm-1) [NB: Negative implies an imaginary mode]:

 -148.22 -145.65 -112.33 -110.14   28.36   31.60   95.82   97.83  109.72
  113.24  120.84  123.60  129.96  133.24  142.62  148.38  160.45  165.09
  174.49  178.69  212.92  214.99  233.60  234.20  279.27  280.06  286.03
  286.63  294.12  294.50  298.96  300.22  313.71  318.23  324.50  329.59


--------------------------------------------------------------------------------
  K point     60 =   0.453846  0.000000  0.453846  Weight =    0.005
--------------------------------------------------------------------------------

  Frequencies (cm-1) [NB: Negative implies an imaginary mode]:

 -148.05 -145.85 -112.18 -110.35   28.63   31.25   96.50   98.04  110.26
  113.20  120.98  123.50  129.97  132.84  142.56  147.66  161.25  165.65
  174.50  178.00  212.79  214.56  233.45  233.92  279.32  280.00  286.11
  286.61  294.23  294.53  299.13  300.19  314.51  318.36  324.67  328.86


--------------------------------------------------------------------------------
  K point     61 =   0.461538  0.000000  0.461538  Weight =    0.005
--------------------------------------------------------------------------------

  Frequencies (cm-1) [NB: Negative implies an imaginary mode]:

 -147.89 -146.05 -112.03 -110.54   28.86   30.93   97.07   98.22  110.80
  113.16  121.11  123.31  130.08  132.47  142.54  146.91  162.08  166.09
  174.52  177.36  212.70  214.16  233.33  233.69  279.37  279.94  286.17
  286.59  294.32  294.55  299.28  300.15  315.28  318.45  324.82  328.16


--------------------------------------------------------------------------------
  K point     62 =   0.469231  0.000000  0.469231  Weight =    0.005
--------------------------------------------------------------------------------

  Frequencies (cm-1) [NB: Negative implies an imaginary mode]:

 -147.72 -146.24 -111.89 -110.73   29.06   30.65   97.54   98.36  111.31
  113.12  121.23  123.04  130.26  132.13  142.60  146.16  162.91  166.38
  174.56  176.79  212.65  213.81  233.22  233.50  279.42  279.88  286.23
  286.58  294.40  294.57  299.42  300.10  316.00  318.51  324.96  327.51


--------------------------------------------------------------------------------
  K point     63 =   0.476923  0.000000  0.476923  Weight =    0.005
--------------------------------------------------------------------------------

  Frequencies (cm-1) [NB: Negative implies an imaginary mode]:

 -147.54 -146.44 -111.75 -110.89   29.25   30.39   97.92   98.47  111.78
  113.07  121.36  122.73  130.48  131.84  142.73  145.45  163.72  166.49
  174.63  176.28  212.63  213.50  233.15  233.34  279.47  279.82  286.28
  286.56  294.46  294.58  299.54  300.04  316.66  318.51  325.10  326.92


--------------------------------------------------------------------------------
  K point     64 =   0.484615  0.000000  0.484615  Weight =    0.005
--------------------------------------------------------------------------------

  Frequencies (cm-1) [NB: Negative implies an imaginary mode]:

 -147.36 -146.63 -111.62 -111.05   29.42   30.17   98.20   98.53  112.18
  113.00  121.51  122.41  130.70  131.57  142.95  144.79  164.48  166.42
  174.74  175.84  212.66  213.24  233.10  233.22  279.52  279.76  286.32
  286.54  294.51  294.59  299.65  299.98  317.24  318.45  325.25  326.40


--------------------------------------------------------------------------------
  K point     65 =   0.492308  0.000000  0.492308  Weight =    0.005
--------------------------------------------------------------------------------

  Frequencies (cm-1) [NB: Negative implies an imaginary mode]:

 -147.18 -146.82 -111.49 -111.20   29.58   29.97   98.39   98.54  112.50
  112.90  121.67  122.13  130.92  131.34  143.27  144.20  165.15  166.15
  174.92  175.46  212.74  213.02  233.08  233.14  279.58  279.70  286.35
  286.52  294.54  294.59  299.75  299.91  317.71  318.31  325.43  325.99


--------------------------------------------------------------------------------
  K point     66 =   0.500000  0.000000  0.500000  Weight =    0.005
--------------------------------------------------------------------------------

  Frequencies (cm-1) [NB: Negative implies an imaginary mode]:

 -147.01 -146.99 -111.38 -111.31   29.70   29.83   98.49   98.51  112.73
  112.74  121.88  121.88  131.11  131.14  143.68  143.70  165.72  165.73
  175.14  175.17  212.85  212.86  233.09  233.10  279.62  279.66  286.36
  286.52  294.54  294.60  299.83  299.84  318.04  318.08  325.64  325.69


--------------------------------------------------------------------------------
  K point     67 =   0.500000  0.016667  0.516667  Weight =    0.005
--------------------------------------------------------------------------------

  Frequencies (cm-1) [NB: Negative implies an imaginary mode]:

 -147.22 -146.79 -111.48 -111.16   29.36   29.91   98.05   98.58  112.49
  112.98  121.46  122.12  130.99  131.21  143.45  143.99  165.49  165.98
  174.17  176.29  212.87  212.99  231.71  234.46  279.57  279.66  285.72
  287.03  294.05  295.12  299.75  300.03  317.88  318.16  325.62  325.76


--------------------------------------------------------------------------------
  K point     68 =   0.500000  0.033333  0.533333  Weight =    0.005
--------------------------------------------------------------------------------

  Frequencies (cm-1) [NB: Negative implies an imaginary mode]:

 -147.45 -146.56 -111.57 -110.93   28.43   30.02   97.12   98.42  112.21
  113.25  120.91  122.19  130.65  131.34  143.17  144.41  165.23  166.30
  173.35  177.52  213.04  213.28  230.33  235.78  279.42  279.66  284.94
  287.47  293.62  295.63  299.73  300.39  317.60  318.17  325.63  325.88


--------------------------------------------------------------------------------
  K point     69 =   0.500000  0.050000  0.550000  Weight =    0.005
--------------------------------------------------------------------------------

  Frequencies (cm-1) [NB: Negative implies an imaginary mode]:

 -147.73 -146.30 -111.64 -110.63   26.84   30.18   95.71   98.08  111.87
  113.56  120.25  122.08  130.16  131.48  142.82  144.96  164.92  166.73
  172.70  178.84  213.34  213.73  228.99  237.05  279.13  279.64  284.16
  287.80  293.27  296.00  299.75  300.95  317.23  318.12  325.68  326.04


--------------------------------------------------------------------------------
  K point     70 =   0.500000  0.066667  0.566667  Weight =    0.005
--------------------------------------------------------------------------------

  Frequencies (cm-1) [NB: Negative implies an imaginary mode]:

 -148.05 -146.00 -111.70 -110.26   24.50   30.38   93.85   97.60  111.45
  113.91  119.54  121.82  129.58  131.57  142.41  145.57  164.55  167.25
  172.21  180.19  213.75  214.33  227.70  238.23  278.65  279.62  283.51
  288.03  293.01  296.22  299.79  301.69  316.77  318.02  325.78  326.22


--------------------------------------------------------------------------------
  K point     71 =   0.500000  0.083333  0.583333  Weight =    0.005
--------------------------------------------------------------------------------

  Frequencies (cm-1) [NB: Negative implies an imaginary mode]:

 -148.41 -145.65 -111.75 -109.81   21.19   30.62   91.63   97.02  110.96
  114.25  118.77  121.44  128.96  131.53  141.96  146.20  164.16  167.84
  171.87  181.56  214.25  215.09  226.54  239.32  277.96  279.60  283.04
  288.18  292.82  296.30  299.83  302.56  316.23  317.90  325.90  326.40


--------------------------------------------------------------------------------
  K point     72 =   0.500000  0.100000  0.600000  Weight =    0.005
--------------------------------------------------------------------------------

  Frequencies (cm-1) [NB: Negative implies an imaginary mode]:

 -148.82 -145.26 -111.78 -109.28   16.41   30.88   89.13   96.35  110.40
  114.54  117.95  120.97  128.34  131.37  141.49  146.78  163.74  168.45
  171.69  182.90  214.76  215.99  225.57  240.28  277.12  279.57  282.78
  288.27  292.68  296.27  299.87  303.47  315.64  317.78  326.05  326.56


--------------------------------------------------------------------------------
  K point     73 =   0.500000  0.116667  0.616667  Weight =    0.005
--------------------------------------------------------------------------------

  Frequencies (cm-1) [NB: Negative implies an imaginary mode]:

 -149.26 -144.84 -111.79 -108.69    8.05   31.15   86.45   95.62  109.76
  114.69  117.09  120.52  127.74  131.09  141.03  147.29  163.31  169.02
  171.66  184.19  215.19  217.03  224.91  241.10  276.21  279.55  282.67
  288.32  292.57  296.17  299.91  304.34  314.99  317.68  326.20  326.72


--------------------------------------------------------------------------------
  K point     74 =   0.500000  0.133333  0.633333  Weight =    0.005
--------------------------------------------------------------------------------

  Frequencies (cm-1) [NB: Negative implies an imaginary mode]:

 -149.73 -144.40 -111.78 -108.03  -12.66   31.41   83.70   94.85  109.04
  114.59  116.22  120.17  127.14  130.71  140.59  147.71  162.87  169.47
  171.79  185.43  215.40  218.19  224.71  241.76  275.34  279.53  282.67
  288.34  292.50  296.03  299.93  305.11  314.29  317.64  326.35  326.85


--------------------------------------------------------------------------------
  K point     75 =   0.500000  0.150000  0.650000  Weight =    0.005
--------------------------------------------------------------------------------

  Frequencies (cm-1) [NB: Negative implies an imaginary mode]:

 -150.22 -143.96 -111.74 -107.30  -20.02   31.63   80.95   94.04  108.24
  114.06  115.45  120.01  126.55  130.27  140.18  148.03  162.42  169.76
  172.06  186.59  215.28  219.45  225.08  242.23  274.58  279.52  282.75
  288.33  292.44  295.85  299.95  305.72  313.57  317.69  326.46  326.99


--------------------------------------------------------------------------------
  K point     76 =   0.500000  0.166667  0.666667  Weight =    0.005
--------------------------------------------------------------------------------

  Frequencies (cm-1) [NB: Negative implies an imaginary mode]:

 -150.71 -143.53 -111.65 -106.51  -25.51   31.80   78.29   93.21  107.35
  113.12  114.80  120.06  125.96  129.82  139.80  148.26  161.97  169.91
  172.39  187.68  214.86  220.77  225.99  242.53  273.98  279.51  282.88
  288.29  292.40  295.65  299.95  306.14  312.81  317.85  326.51  327.15


--------------------------------------------------------------------------------
  K point     77 =   0.500000  0.183333  0.683333  Weight =    0.005
--------------------------------------------------------------------------------

  Frequencies (cm-1) [NB: Negative implies an imaginary mode]:

 -151.20 -143.16 -111.51 -105.65  -30.07   31.87   75.83   92.38  106.37
  111.96  114.15  120.24  125.36  129.37  139.45  148.40  161.51  169.97
  172.70  188.67  214.24  222.11  227.34  242.67  273.59  279.52  283.06
  288.24  292.36  295.44  299.93  306.33  312.04  318.12  326.47  327.35


--------------------------------------------------------------------------------
  K point     78 =   0.500000  0.200000  0.700000  Weight =    0.005
--------------------------------------------------------------------------------

  Frequencies (cm-1) [NB: Negative implies an imaginary mode]:

 -151.68 -142.86 -111.30 -104.72  -33.96   31.81   73.63   91.56  105.31
  110.72  113.47  120.47  124.79  128.95  139.11  148.46  161.03  169.95
  172.94  189.58  213.52  223.39  229.03  242.72  273.42  279.53  283.27
  288.18  292.33  295.22  299.89  306.30  311.25  318.51  326.36  327.57


--------------------------------------------------------------------------------
  K point     79 =   0.500000  0.216667  0.716667  Weight =    0.005
--------------------------------------------------------------------------------

  Frequencies (cm-1) [NB: Negative implies an imaginary mode]:

 -152.13 -142.65 -111.02 -103.71  -37.32   31.57   71.79   90.74  104.17
  109.47  112.77  120.66  124.30  128.57  138.78  148.46  160.53  169.86
  173.08  190.41  212.79  224.53  230.97  242.75  273.46  279.56  283.52
  288.10  292.31  295.00  299.84  306.06  310.46  318.97  326.18  327.80


--------------------------------------------------------------------------------
  K point     80 =   0.500000  0.233333  0.733333  Weight =    0.005
--------------------------------------------------------------------------------

  Frequencies (cm-1) [NB: Negative implies an imaginary mode]:

 -152.55 -142.56 -110.66 -102.62  -40.20   31.09   70.39   89.95  102.97
  108.25  112.07  120.69  123.96  128.24  138.46  148.41  160.00  169.70
  173.14  191.16  212.09  225.42  233.10  242.87  273.68  279.60  283.79
  288.01  292.28  294.78  299.76  305.64  309.69  319.48  325.94  328.04


--------------------------------------------------------------------------------
  K point     81 =   0.500000  0.250000  0.750000  Weight =    0.005
--------------------------------------------------------------------------------

  Frequencies (cm-1) [NB: Negative implies an imaginary mode]:

 -152.93 -142.61 -110.24 -101.44  -42.63   30.31   69.50   89.18  101.71
  107.08  111.38  120.49  123.84  127.97  138.13  148.31  159.43  169.44
  173.13  191.82  211.44  225.97  235.36  243.22  274.06  279.67  284.08
  287.91  292.25  294.56  299.65  305.06  308.93  319.98  325.67  328.30


--------------------------------------------------------------------------------
  K point     82 =   0.458333  0.291667  0.750000  Weight =    0.005
[...]


--------------------------------------------------------------------------------
  K point    179 =   0.054054  0.054054  0.108108  Weight =    0.005
--------------------------------------------------------------------------------

  Frequencies (cm-1) [NB: Negative implies an imaginary mode]:

 -155.49 -140.40 -111.81  -63.15  -50.93   15.54   23.03   28.51   85.17
   87.72   94.61  106.94  117.61  133.57  152.46  159.93  176.33  182.72
  200.54  211.97  225.77  243.59  251.46  256.53  261.54  269.97  280.46
  282.58  285.04  287.27  290.28  294.96  300.01  304.60  306.74  353.75


--------------------------------------------------------------------------------
  K point    180 =   0.050676  0.050676  0.101351  Weight =    0.005
--------------------------------------------------------------------------------

  Frequencies (cm-1) [NB: Negative implies an imaginary mode]:

 -155.48 -140.43 -111.80  -62.66  -50.87   14.60   21.73   26.90   84.87
   87.20   94.39  107.19  117.66  134.14  152.09  160.29  176.63  183.17
  200.52  212.14  225.82  243.58  251.38  256.77  261.36  269.69  280.44
  282.50  284.97  287.19  290.27  294.90  300.04  304.58  306.70  353.84


--------------------------------------------------------------------------------
  K point    181 =   0.047297  0.047297  0.094595  Weight =    0.005
--------------------------------------------------------------------------------

  Frequencies (cm-1) [NB: Negative implies an imaginary mode]:

 -155.47 -140.45 -111.78  -62.17  -50.83   13.66   20.40   25.26   84.58
   86.70   94.22  107.42  117.70  134.71  151.71  160.63  176.90  183.61
  200.48  212.30  225.88  243.58  251.29  257.01  261.18  269.43  280.42
  282.42  284.91  287.11  290.26  294.84  300.06  304.56  306.66  353.94


--------------------------------------------------------------------------------
  K point    182 =   0.043919  0.043919  0.087838  Weight =    0.005
--------------------------------------------------------------------------------

  Frequencies (cm-1) [NB: Negative implies an imaginary mode]:

 -155.47 -140.47 -111.77  -61.69  -50.80   12.71   19.06   23.59   84.30
   86.20   94.07  107.65  117.72  135.30  151.31  160.95  177.14  184.04
  200.43  212.46  225.93  243.58  251.19  257.24  261.01  269.17  280.40
  282.36  284.84  287.03  290.25  294.79  300.08  304.55  306.63  354.02


--------------------------------------------------------------------------------
  K point    183 =   0.040541  0.040541  0.081081  Weight =    0.005
--------------------------------------------------------------------------------

  Frequencies (cm-1) [NB: Negative implies an imaginary mode]:

 -155.46 -140.50 -111.75  -61.22  -50.78   11.75   17.69   21.89   84.04
   85.73   93.95  107.87  117.74  135.88  150.90  161.25  177.37  184.46
  200.37  212.60  225.98  243.58  251.09  257.48  260.85  268.93  280.39
  282.31  284.77  286.96  290.24  294.74  300.11  304.53  306.60  354.10


--------------------------------------------------------------------------------
  K point    184 =   0.037162  0.037162  0.074324  Weight =    0.005
--------------------------------------------------------------------------------

  Frequencies (cm-1) [NB: Negative implies an imaginary mode]:

 -155.45 -140.52 -111.74  -60.75  -50.77   10.79   16.30   20.17   83.79
   85.27   93.85  108.08  117.74  136.47  150.47  161.52  177.57  184.86
  200.30  212.74  226.03  243.59  250.98  257.72  260.70  268.70  280.37
  282.26  284.71  286.90  290.23  294.69  300.13  304.51  306.58  354.18


--------------------------------------------------------------------------------
  K point    185 =   0.033784  0.033784  0.067568  Weight =    0.005
--------------------------------------------------------------------------------

  Frequencies (cm-1) [NB: Negative implies an imaginary mode]:

 -155.45 -140.54 -111.72  -60.30  -50.78    9.83   14.90   18.43   83.55
   84.85   93.77  108.27  117.73  137.05  150.04  161.78  177.75  185.24
  200.22  212.87  226.08  243.60  250.88  257.94  260.56  268.48  280.36
  282.23  284.64  286.84  290.23  294.65  300.15  304.50  306.56  354.24


--------------------------------------------------------------------------------
  K point    186 =   0.030405  0.030405  0.060811  Weight =    0.005
--------------------------------------------------------------------------------

  Frequencies (cm-1) [NB: Negative implies an imaginary mode]:

 -155.44 -140.56 -111.71  -59.87  -50.80    8.86   13.47   16.66   83.33
   84.47   93.71  108.45  117.72  137.62  149.61  162.01  177.91  185.61
  200.14  212.99  226.12  243.61  250.77  258.15  260.43  268.27  280.35
  282.19  284.57  286.79  290.22  294.61  300.17  304.49  306.54  354.30


--------------------------------------------------------------------------------
  K point    187 =   0.027027  0.027027  0.054054  Weight =    0.005
--------------------------------------------------------------------------------

  Frequencies (cm-1) [NB: Negative implies an imaginary mode]:

 -155.44 -140.58 -111.70  -59.45  -50.84    7.88   12.02   14.86   83.12
   84.12   93.66  108.62  117.70  138.19  149.17  162.22  178.05  185.94
  200.05  213.10  226.16  243.62  250.66  258.36  260.32  268.07  280.35
  282.17  284.50  286.74  290.22  294.57  300.18  304.48  306.52  354.36


--------------------------------------------------------------------------------
  K point    188 =   0.023649  0.023649  0.047297  Weight =    0.005
--------------------------------------------------------------------------------

  Frequencies (cm-1) [NB: Negative implies an imaginary mode]:

 -155.43 -140.59 -111.69  -59.06  -50.88    6.91   10.56   13.05   82.92
   83.83   93.62  108.77  117.69  138.74  148.74  162.41  178.17  186.25
  199.97  213.20  226.20  243.63  250.57  258.54  260.22  267.89  280.34
  282.15  284.44  286.70  290.22  294.54  300.20  304.47  306.51  354.40


--------------------------------------------------------------------------------
  K point    189 =   0.020270  0.020270  0.040541  Weight =    0.005
--------------------------------------------------------------------------------

  Frequencies (cm-1) [NB: Negative implies an imaginary mode]:

 -155.43 -140.61 -111.68  -58.71  -50.93    5.92    9.09   11.22   82.74
   83.57   93.59  108.91  117.67  139.26  148.31  162.57  178.28  186.52
  199.89  213.28  226.23  243.65  250.47  258.70  260.14  267.73  280.34
  282.13  284.38  286.66  290.22  294.51  300.21  304.46  306.50  354.45


--------------------------------------------------------------------------------
  K point    190 =   0.016892  0.016892  0.033784  Weight =    0.005
--------------------------------------------------------------------------------

  Frequencies (cm-1) [NB: Negative implies an imaginary mode]:

 -155.42 -140.62 -111.67  -58.39  -50.99    4.94    7.59    9.38   82.57
   83.37   93.56  109.02  117.65  139.76  147.91  162.70  178.37  186.76
  199.81  213.36  226.26  243.66  250.39  258.84  260.08  267.59  280.34
  282.12  284.32  286.64  290.21  294.49  300.22  304.45  306.49  354.48


--------------------------------------------------------------------------------
  K point    191 =   0.013514  0.013514  0.027027  Weight =    0.005
--------------------------------------------------------------------------------

  Frequencies (cm-1) [NB: Negative implies an imaginary mode]:

 -155.42 -140.63 -111.66  -58.11  -51.04    3.96    6.09    7.52   82.42
   83.21   93.54  109.12  117.63  140.21  147.53  162.82  178.44  186.96
  199.75  213.42  226.28  243.68  250.32  258.95  260.04  267.47  280.34
  282.11  284.28  286.61  290.21  294.47  300.23  304.44  306.48  354.51


--------------------------------------------------------------------------------
  K point    192 =   0.010135  0.010135  0.020270  Weight =    0.005
--------------------------------------------------------------------------------

  Frequencies (cm-1) [NB: Negative implies an imaginary mode]:

 -155.42 -140.64 -111.66  -57.89  -51.09    2.97    4.58    5.65   82.30
   83.09   93.53  109.19  117.62  140.59  147.20  162.90  178.50  187.12
  199.69  213.46  226.30  243.69  250.26  259.03  260.01  267.37  280.34
  282.11  284.24  286.59  290.21  294.46  300.24  304.44  306.47  354.53


--------------------------------------------------------------------------------
  K point    193 =   0.006757  0.006757  0.013514  Weight =    0.005
--------------------------------------------------------------------------------

  Frequencies (cm-1) [NB: Negative implies an imaginary mode]:

 -155.42 -140.64 -111.65  -57.72  -51.14    1.98    3.06    3.77   82.21
   83.01   93.52  109.25  117.60  140.90  146.93  162.97  178.54  187.23
  199.65  213.50  226.31  243.70  250.22  259.09  259.99  267.30  280.34
  282.10  284.21  286.58  290.21  294.45  300.25  304.44  306.47  354.55


--------------------------------------------------------------------------------
  K point    194 =   0.003378  0.003378  0.006757  Weight =    0.005
--------------------------------------------------------------------------------

  Frequencies (cm-1) [NB: Negative implies an imaginary mode]:

 -155.42 -140.65 -111.65  -57.62  -51.16    0.99    1.53    1.89   82.15
   82.96   93.51  109.28  117.60  141.10  146.76  163.01  178.56  187.30
  199.63  213.52  226.32  243.70  250.19  259.12  259.99  267.25  280.35
  282.10  284.19  286.57  290.21  294.44  300.25  304.44  306.46  354.56


--------------------------------------------------------------------------------
  K point    195 =  -0.000000 -0.000000 -0.000000  Weight =    0.005
--------------------------------------------------------------------------------

  Frequencies (cm-1) [NB: Negative implies an imaginary mode]:

 -151.97 -138.69 -112.00  -80.37  -29.04   -0.00   -0.00    0.00   81.21
   83.00   88.17  107.22  117.41  141.95  150.31  164.61  178.65  187.26
  198.34  213.53  225.71  243.31  249.52  257.51  259.57  265.13  280.36
  281.01  284.18  286.41  292.11  294.79  300.34  304.79  306.40  354.29


--------------------------------------------------------------------------------
  K point    196 =   0.500000  0.500000  0.500000  Weight =    0.003
--------------------------------------------------------------------------------

  Frequencies (cm-1) [NB: Negative implies an imaginary mode]:

 -152.44 -150.74 -105.32  -86.17  -42.47  -18.41   81.50   85.42   92.81
   99.92  106.64  111.96  125.18  131.29  132.33  138.27  158.94  159.81
  172.33  195.24  208.45  216.06  258.52  266.70  278.70  280.64  285.25
  289.73  289.80  292.06  293.46  296.70  307.04  313.75  326.90  331.17


--------------------------------------------------------------------------------
  Phonon properties (per mole of unit cells): Temperature =      0.000 K
--------------------------------------------------------------------------------
  Zero point energy            =        0.393113 eV
--------------------------------------------------------------------------------

  Phonon density of states : 

--------------------------------------------------------------------------------
 Frequency (cm-1) Density of States                                             
--------------------------------------------------------------------------------
    0.00000 |                                                              0.000
    5.17448 |                                                              0.000
   10.34896 |                                                              0.000
   15.52344 |                                                              0.000
   20.69792 |                                                              0.000
   25.87239 |                                                              0.000
   31.04687 |                                                              0.000
   36.22135 |                                                              0.000
   41.39583 |                                                              0.000
   46.57031 |                                                              0.000
   51.74479 |                                                              0.000
   56.91927 |                                                              0.000
   62.09375 |                                                              0.000
   67.26822 |                                                              0.000
   72.44270 |                                                              0.000
   77.61718 |********************                                          0.033
   82.79166 |********************                                          0.033
   87.96614 |********************                                          0.033
   93.14062 |                                                              0.000
   98.31510 |********************                                          0.033
  103.48958 |********************                                          0.033
  108.66405 |********************                                          0.033
  113.83853 |                                                              0.000
  119.01301 |                                                              0.000
  124.18749 |********************                                          0.033
  129.36197 |****************************************                      0.067
  134.53645 |********************                                          0.033
  139.71093 |                                                              0.000
  144.88541 |                                                              0.000
  150.05988 |                                                              0.000
  155.23436 |****************************************                      0.067
  160.40884 |                                                              0.000
  165.58332 |                                                              0.000
  170.75780 |********************                                          0.033
  175.93228 |                                                              0.000
  181.10676 |                                                              0.000
  186.28124 |                                                              0.000
  191.45571 |********************                                          0.033
  196.63019 |                                                              0.000
  201.80467 |                                                              0.000
  206.97915 |********************                                          0.033
  212.15363 |********************                                          0.033
  217.32811 |                                                              0.000
  222.50259 |                                                              0.000
  227.67707 |                                                              0.000
  232.85154 |                                                              0.000
  238.02602 |                                                              0.000
  243.20050 |                                                              0.000
  248.37498 |                                                              0.000
  253.54946 |********************                                          0.033
  258.72394 |                                                              0.000
  263.89842 |********************                                          0.033
  269.07290 |                                                              0.000
  274.24737 |********************                                          0.033
  279.42185 |********************                                          0.033
  284.59633 |****************************************                      0.067
  289.77081 |************************************************************  0.100
  294.94529 |********************                                          0.033
  300.11977 |                                                              0.000
  305.29425 |********************                                          0.033
  310.46873 |********************                                          0.033
  315.64320 |                                                              0.000
  320.81768 |                                                              0.000
  325.99216 |****************************************                      0.067
--------------------------------------------------------------------------------




  Phonon density of states written on channel 17



  Phonon dispersion curves : 

--------------------------------------------------------------------------------
  Section number =   1
--------------------------------------------------------------------------------
  Frequency (cm-1) Phonon dispersion                                            
--------------------------------------------------------------------------------
   349.98   |********                                       *************
   335.39   |       *********                   *************            
   320.81   |             ***********************                        
   306.23   |************************************************************
   291.65   |************************************************************
   277.06   |************************************************************
   262.48   |************         ****          *************************
   247.90   |**********               **     ****************************
   233.32   |******************* ****************************************
   218.73   |****************  ******************************************
   204.15   |********    *************                   ****************
   189.57   |**************         *************************************
   174.99   |******* ************************************    ************
   160.41   |*   ************************************************** *****
   145.82   |*******************  ************      *********************
   131.24   |************************************************     *******
   116.66   |************************************************************
   102.08   |************************************************************
    87.49   |************************************************************
    72.91   |********** ****      *********************          ********
    58.33   |    **  ****           ***********************              
    43.75   |   *****                                   *********        
    29.16   | ************************          ********************     
    14.58   |******       ****** **  ************             *********  
     0.00   |***         **       *   *                             *****
--------------------------------------------------------------------------------


  Phonon dispersion written on channel 18

  XYZ File written as gulp.xyz


  Time to end of properties =       1.7200 seconds


  Peak dynamic memory used =       0.84 MB 


  Timing analysis for GULP :

--------------------------------------------------------------------------------
  Task / Subroutine                                          Time (Seconds)
--------------------------------------------------------------------------------
  Calculation of reciprocal space energy and derivatives          0.6720
  Calculation of real space energy and derivatives                1.0040
  Calculation of phonons                                          1.7040
  Disk read/write operations to scratch files                     0.0040
--------------------------------------------------------------------------------
  Total CPU time                                                  1.7200
--------------------------------------------------------------------------------


  Job Finished at 16:41.26 13th June       2019                               

